/*--------------------------------*- C++ -*----------------------------------*\
| =========                 |                                                 |
| \\      /  F ield         | OpenFOAM: The Open Source CFD Toolbox           |
|  \\    /   O peration     | Version:  2312                                  |
|   \\  /    A nd           | Website:  www.openfoam.com                      |
|    \\/     M anipulation  |                                                 |
\*---------------------------------------------------------------------------*/
FoamFile
{
    version     2.0;
    format      ascii;
    arch        "LSB;label=32;scalar=64";
    class       volScalarField;
    location    "400";
    object      magR;
}
// * * * * * * * * * * * * * * * * * * * * * * * * * * * * * * * * * * * * * //

dimensions      [0 2 -2 0 0 0 0];

internalField   nonuniform List<scalar> 
27
(
0.0456146
0.0290698
0.0361716
0.0336468
0.0152176
0.0414592
0.0656612
0.0362785
0.039951
0.0358524
0.0341272
0.089707
0.0412205
0.0133508
0.00413928
0.00187764
0.0135787
0.0470106
0.000348913
0.000689385
0.0032637
0.000441966
0.00491355
0.0928913
0.16835
0.281992
0.895286
)
;

boundaryField
{
    aggregate
    {
        type            calculated;
        value           nonuniform List<scalar> 
24
(
2.30036
2.3801
2.19267
2.16116
2.28897
2.11987
2.29325
2.49679
2.29268
2.17961
2.32963
2.11573
1.38375
1.40511
1.31929
1.55701
1.66259
1.56139
1.81796
1.97102
1.79617
1.88642
2.02057
1.81933
)
;
    }
    XY-Zmin
    {
        type            calculated;
        value           nonuniform List<scalar> 9(2.09912 2.04398 1.76989 1.2475 1.63764 2.13282 1.02463 0.983652 1.64021);
    }
    YZ-Xmin
    {
        type            calculated;
        value           nonuniform List<scalar> 9(0.0333088 0.025182 0.0297717 0.0268238 0.0162762 0.022729 0.0348017 0.0254171 0.0339564);
    }
    XZ-Ymin
    {
        type            calculated;
        value           nonuniform List<scalar> 9(2.08363 1.86586 1.51683 1.23473 1.35971 1.42022 1.00293 0.720428 0.800493);
    }
    XY-Zmax
    {
        type            calculated;
        value           nonuniform List<scalar> 9(1.49229 1.47513 1.70682 1.45134 1.7209 1.93865 0.841404 1.34759 2.25932);
    }
    XZ-Ymax
    {
        type            calculated;
        value           nonuniform List<scalar> 9(1.75942 1.58987 1.73339 2.17971 1.88802 1.96737 1.72172 2.0096 2.31748);
    }
    YZ-Xmax
    {
        type            calculated;
        value           nonuniform List<scalar> 9(0.000365402 0.000699688 0.00325419 0.000433627 0.00507792 0.0916108 0.162823 0.265645 0.884933);
    }
}


// ************************************************************************* //
