/*--------------------------------*- C++ -*----------------------------------*\
| =========                 |                                                 |
| \\      /  F ield         | OpenFOAM: The Open Source CFD Toolbox           |
|  \\    /   O peration     | Version:  2312                                  |
|   \\  /    A nd           | Website:  www.openfoam.com                      |
|    \\/     M anipulation  |                                                 |
\*---------------------------------------------------------------------------*/
FoamFile
{
    version     2.0;
    format      ascii;
    arch        "LSB;label=32;scalar=64";
    class       volVectorField;
    location    "400";
    object      momentError;
}
// * * * * * * * * * * * * * * * * * * * * * * * * * * * * * * * * * * * * * //

dimensions      [0 1 -2 0 0 0 0];

internalField   nonuniform List<vector> 
27
(
(-0.00904428 -0.000300005 0.00173776)
(-0.0142244 0.00173627 -0.00159989)
(-0.0108323 -0.0120137 0.00755468)
(0.158139 0.00383064 -0.189532)
(-0.0173772 0.00209828 -0.00340996)
(1.53043 0.0575132 -1.61406)
(-1.2004 -0.769931 2.30656)
(2.34704 0.100486 -2.48821)
(2.20028 0.28302 -0.420963)
(-0.0771547 -0.0169925 -0.00416911)
(-61.7243 -7.47637 -3.5991)
(-0.0679795 -0.0402777 0.0229902)
(-89.6911 -19.9887 21.7353)
(-95.0289 -3.21268 -29.4257)
(-38.4268 -1.69532 -17.7426)
(-56.7046 -8.02065 23.2873)
(-156.397 -24.5903 -27.8328)
(-53.388 -24.0796 -23.6909)
(-453.212 -128.121 -39.4798)
(-1164.73 -84.0899 -97.3103)
(-898.39 -70.1083 -100.95)
(-1664.37 -192.925 84.9043)
(-1512.11 -345.416 -131.039)
(-918.585 -374.504 -233.909)
(-1060.92 -650.007 -57.6396)
(-50.5263 -810.01 -45.1885)
(547.32 -545.306 37.8458)
)
;

boundaryField
{
    aggregate
    {
        type            calculated;
        value           nonuniform List<vector> 
24
(
(-86.9304 -70.5576 102.524)
(625.799 -11.0174 -0.602082)
(-86.9304 17.7464 16.0047)
(437.437 -271.598 578.905)
(1159 50.5074 21.0055)
(437.437 135.766 70.2305)
(-444.147 -97.9398 84.6)
(436.498 -50.0757 1.6972)
(-444.147 -345.184 -168.68)
(799.198 -186.354 500.971)
(1676.51 87.0779 27.3688)
(799.198 -61.6788 -58.5168)
(746.432 92.5172 66.8889)
(1220.31 114.888 28.1424)
(746.432 266.9 115.906)
(-1199.4 -5.57763 -256.329)
(-1085.01 -123.145 -52.6973)
(-1199.4 -327.492 -170.679)
(-1973.1 -229.391 192.896)
(-1906.37 -143.56 44.2321)
(-1973.1 -556.115 -193.951)
(-1076.75 -28.0015 -73.9221)
(-935.203 -46.7995 -41.3629)
(-1076.75 -626.028 -375.784)
)
;
    }
    XY-Zmin
    {
        type            calculated;
        value           nonuniform List<vector> 9((-86.9304 -11.0174 119.131) (-444.147 -50.0757 -85.7798) (726.753 84.5859 11.4096) (746.432 114.888 154.653) (-1973.1 -143.56 -45.2912) (-1296.52 -80.0936 46.0256) (-249.809 -118.857 -217.278) (-539.649 -279.45 38.4445) (-448.392 -686.956 30.9594));
    }
    YZ-Xmin
    {
        type            calculated;
        value           nonuniform List<vector> 9((708.555 -0.846369 -0.599146) (794.421 -1.71426 20.9034) (-6.49323 4.44927 -7.42587) (807.955 0.518639 1.68804) (1017.42 -7.33517 27.2359) (360.911 -9.41503 4.59629) (801.006 -11.3859 2.17108) (817.567 -4.72537 1.19003) (864.672 -38.9568 3.81629));
    }
    XZ-Ymin
    {
        type            calculated;
        value           nonuniform List<vector> 9((-86.9304 -41.7936 -0.602082) (437.437 -186.342 21.0055) (-141.803 -321.642 -7.46216) (746.432 244.529 28.1424) (-1199.4 -209.924 -52.6973) (-457.075 -1.88827 -8.6479) (-249.809 -482.048 -41.1308) (-658.043 -296.265 -119.032) (-1000.96 -243.714 -97.848));
    }
    XY-Zmax
    {
        type            calculated;
        value           nonuniform List<vector> 9((-141.803 -15.5664 453.333) (143.642 9.46022 449.185) (875.934 76.7684 67.8182) (-457.075 -51.961 -434.495) (-1531.42 -75.0114 -331.821) (-879.049 -76.6685 68.576) (-1000.96 -76.8552 -112.205) (-138.143 -393.975 -188.178) (615.367 -545.32 97.9365));
    }
    XZ-Ymax
    {
        type            calculated;
        value           nonuniform List<vector> 9((726.753 -208.277 2.17042) (587.692 -101.526 1.208) (875.934 -455.877 3.83694) (-1296.52 -667.504 18.5954) (-711.433 -518.425 -36.3741) (-879.049 -152.863 -33.9486) (-448.392 -645.517 -51.5838) (191.785 -652.398 -37.7037) (615.367 -368.906 39.6772));
    }
    YZ-Xmax
    {
        type            calculated;
        value           nonuniform List<vector> 9((-443.38 -128.132 -39.4805) (-1851.49 -84.2886 -97.3612) (-1198.42 -70.0642 -100.94) (-2919.42 -194.592 84.8639) (-2773.74 -348.262 -131.302) (-1767.6 -375.136 -233.908) (-1596.59 -650.729 -57.6029) (-367.61 -810.131 -45.1619) (301.71 -545.319 37.8489));
    }
}


// ************************************************************************* //
