/*--------------------------------*- C++ -*----------------------------------*\
| =========                 |                                                 |
| \\      /  F ield         | OpenFOAM: The Open Source CFD Toolbox           |
|  \\    /   O peration     | Version:  2312                                  |
|   \\  /    A nd           | Website:  www.openfoam.com                      |
|    \\/     M anipulation  |                                                 |
\*---------------------------------------------------------------------------*/
FoamFile
{
    version     2.0;
    format      ascii;
    arch        "LSB;label=32;scalar=64";
    class       volScalarField;
    location    "400";
    object      nuTilda;
}
// * * * * * * * * * * * * * * * * * * * * * * * * * * * * * * * * * * * * * //

dimensions      [0 2 -1 0 0 0 0];

internalField   nonuniform List<scalar> 
27
(
4.99884e-05
4.69363e-05
4.34625e-05
5.04162e-05
5.02323e-05
5.49794e-05
5.70949e-05
4.87611e-05
4.43422e-05
5.00627e-05
5.5582e-05
7.44543e-05
5.80975e-05
4.24151e-05
1.61057e-05
8.83652e-06
2.83977e-05
4.6797e-05
4.81472e-06
7.88348e-06
1.45201e-05
5.95361e-06
3.70654e-05
9.97868e-05
0.000113891
0.000239068
0.000501116
)
;

boundaryField
{
    aggregate
    {
        type            fixedValue;
        value           uniform 0;
    }
    XY-Zmin
    {
        type            fixedValue;
        value           uniform 0;
    }
    YZ-Xmin
    {
        type            freestream;
        freestreamValue uniform 4e-05;
        value           uniform 4e-05;
    }
    XZ-Ymin
    {
        type            fixedValue;
        value           uniform 0;
    }
    XY-Zmax
    {
        type            fixedValue;
        value           uniform 0;
    }
    XZ-Ymax
    {
        type            fixedValue;
        value           uniform 0;
    }
    YZ-Xmax
    {
        type            freestream;
        freestreamValue uniform 4e-05;
        value           nonuniform List<scalar> 9(4.81472e-06 7.88348e-06 1.45201e-05 5.95361e-06 3.70654e-05 9.97868e-05 0.000113891 0.000239068 0.000501116);
    }
}


// ************************************************************************* //
