/*--------------------------------*- C++ -*----------------------------------*\
| =========                 |                                                 |
| \\      /  F ield         | OpenFOAM: The Open Source CFD Toolbox           |
|  \\    /   O peration     | Version:  2312                                  |
|   \\  /    A nd           | Website:  www.openfoam.com                      |
|    \\/     M anipulation  |                                                 |
\*---------------------------------------------------------------------------*/
FoamFile
{
    version     2.0;
    format      ascii;
    arch        "LSB;label=32;scalar=64";
    class       surfaceScalarField;
    location    "400";
    object      phi;
}
// * * * * * * * * * * * * * * * * * * * * * * * * * * * * * * * * * * * * * //

dimensions      [0 3 -1 0 0 0 0];

oriented        oriented;

internalField   nonuniform List<scalar> 
54
(
0.00453419
0.0232244
0.0284173
-0.00213506
0.0208335
0.0207946
0.0218838
0.0273513
0.000301356
0.032009
0.0030129
0.0115002
0.2221
0.0139859
0.230654
-0.0044058
0.253344
0.248527
0.0271713
0.000543957
0.246172
0.015728
0.00197176
0.293892
0.0232409
0.310767
0.00447058
0.002394
0.307685
0.00999429
0.00607243
0.303739
0.0143224
0.209034
-0.0100767
0.194402
-0.00430087
0.207158
0.212062
-0.015151
-0.00503537
0.22037
-0.0154848
-0.00048195
0.253624
-0.00467721
0.272723
-0.00965334
0.00753565
0.295618
-0.00443701
0.0096039
0.29603
0.00350545
)
;

boundaryField
{
    aggregate
    {
        type            calculated;
        value           uniform 0;
    }
    XY-Zmin
    {
        type            calculated;
        value           uniform 0;
    }
    YZ-Xmin
    {
        type            calculated;
        value           nonuniform List<scalar> 9(-0.257509 -0.257553 -0.257539 -0.257556 -0.257448 -0.257487 -0.257191 -0.257201 -0.257205);
    }
    XZ-Ymin
    {
        type            calculated;
        value           uniform 0;
    }
    XY-Zmax
    {
        type            calculated;
        value           uniform 0;
    }
    XZ-Ymax
    {
        type            calculated;
        value           uniform 0;
    }
    YZ-Xmax
    {
        type            calculated;
        value           nonuniform List<scalar> 9(0.243915 0.231584 0.201896 0.263796 0.28322 0.275601 0.278244 0.296802 0.31124);
    }
}


// ************************************************************************* //
