/*--------------------------------*- C++ -*----------------------------------*\
| =========                 |                                                 |
| \\      /  F ield         | OpenFOAM: The Open Source CFD Toolbox           |
|  \\    /   O peration     | Version:  2312                                  |
|   \\  /    A nd           | Website:  www.openfoam.com                      |
|    \\/     M anipulation  |                                                 |
\*---------------------------------------------------------------------------*/
FoamFile
{
    version     2.0;
    format      ascii;
    arch        "LSB;label=32;scalar=64";
    class       volScalarField;
    location    "400";
    object      turbulenceProperties:L;
}
// * * * * * * * * * * * * * * * * * * * * * * * * * * * * * * * * * * * * * //

dimensions      [0 1 0 0 0 0 0];

internalField   nonuniform List<scalar> 
27
(
0.00114259
0.00140282
0.00123599
0.00133451
0.00198152
0.00124798
0.00101105
0.0012703
0.00118052
0.00128936
0.00138286
0.00103798
0.00128821
0.00202591
0.00462541
0.00913843
0.00206855
0.00110224
0.0286497
0.0159538
0.0054609
0.0229014
0.0033113
0.00132794
0.00112226
0.00182141
0.00214466
)
;

boundaryField
{
    aggregate
    {
        type            calculated;
        value           uniform 0;
    }
    XY-Zmin
    {
        type            calculated;
        value           uniform 0;
    }
    YZ-Xmin
    {
        type            calculated;
        value           nonuniform List<scalar> 9(0.00138922 0.00159728 0.0014704 0.00154767 0.00198484 0.00168284 0.00136 0.00159138 0.00137682);
    }
    XZ-Ymin
    {
        type            calculated;
        value           uniform 0;
    }
    XY-Zmax
    {
        type            calculated;
        value           uniform 0;
    }
    XZ-Ymax
    {
        type            calculated;
        value           uniform 0;
    }
    YZ-Xmax
    {
        type            calculated;
        value           nonuniform List<scalar> 9(0.0279959 0.0158359 0.00546888 0.0231205 0.0032584 0.00133732 0.00114109 0.00187671 0.00215718);
    }
}


// ************************************************************************* //
