/*--------------------------------*- C++ -*----------------------------------*\
| =========                 |                                                 |
| \\      /  F ield         | OpenFOAM: The Open Source CFD Toolbox           |
|  \\    /   O peration     | Version:  2312                                  |
|   \\  /    A nd           | Website:  www.openfoam.com                      |
|    \\/     M anipulation  |                                                 |
\*---------------------------------------------------------------------------*/
FoamFile
{
    version     2.0;
    format      ascii;
    arch        "LSB;label=32;scalar=64";
    class       volScalarField;
    location    "400";
    object      turbulenceProperties:I;
}
// * * * * * * * * * * * * * * * * * * * * * * * * * * * * * * * * * * * * * //

dimensions      [0 0 0 0 0 0 0];

internalField   nonuniform List<scalar> 
27
(
0.00517334
0.00422068
0.00558008
0.00433256
0.00302363
0.00563193
0.00699074
0.00517264
0.00552361
0.0060782
0.00541451
0.00904234
0.00543049
0.00306478
0.00167188
0.00106363
0.00291989
0.00557082
0.000672862
0.00108029
0.00237968
0.000739127
0.00231173
0.00889744
0.0112627
0.0124092
0.0215026
)
;

boundaryField
{
    aggregate
    {
        type            calculated;
        value           uniform 0;
    }
    XY-Zmin
    {
        type            calculated;
        value           uniform 0;
    }
    YZ-Xmin
    {
        type            calculated;
        value           nonuniform List<scalar> 9(0.00529253 0.00460374 0.00500543 0.00475001 0.00370461 0.00437241 0.00540988 0.00462311 0.00534406);
    }
    XZ-Ymin
    {
        type            calculated;
        value           uniform 0;
    }
    XY-Zmax
    {
        type            calculated;
        value           uniform 0;
    }
    XZ-Ymax
    {
        type            calculated;
        value           uniform 0;
    }
    YZ-Xmax
    {
        type            calculated;
        value           nonuniform List<scalar> 9(0.000688509 0.00108732 0.00237299 0.000731345 0.00234757 0.00883474 0.0110806 0.0120515 0.0213851);
    }
}


// ************************************************************************* //
