/*--------------------------------*- C++ -*----------------------------------*\
| =========                 |                                                 |
| \\      /  F ield         | OpenFOAM: The Open Source CFD Toolbox           |
|  \\    /   O peration     | Version:  2312                                  |
|   \\  /    A nd           | Website:  www.openfoam.com                      |
|    \\/     M anipulation  |                                                 |
\*---------------------------------------------------------------------------*/
FoamFile
{
    version     2.0;
    format      ascii;
    arch        "LSB;label=32;scalar=64";
    class       volScalarField;
    location    "400";
    object      turbulenceProperties:nuEff;
}
// * * * * * * * * * * * * * * * * * * * * * * * * * * * * * * * * * * * * * //

dimensions      [0 2 -1 0 0 0 0];

internalField   nonuniform List<scalar> 
27
(
2.29326e-05
2.05206e-05
1.81095e-05
2.3292e-05
2.31369e-05
2.74336e-05
2.95329e-05
2.19304e-05
1.86859e-05
2.29947e-05
2.80206e-05
4.98754e-05
3.05643e-05
1.74537e-05
1.01858e-05
1.0017e-05
1.17077e-05
2.04169e-05
1.00015e-05
1.00108e-05
1.01231e-05
1.00035e-05
1.46167e-05
8.33613e-05
0.00010168
0.000242965
0.000509694
)
;

boundaryField
{
    aggregate
    {
        type            calculated;
        value           nonuniform List<scalar> 
24
(
0.00152989
0.00016904
0.00115859
0.00113895
0.000166174
0.00150397
0.00118274
0.000172563
0.00156175
0.00151509
0.000167405
0.0011474
0.00121447
0.000134189
0.000919722
0.000989288
0.000144338
0.00130634
0.00106554
0.000155463
0.00140699
0.00142284
0.000157212
0.00107754
)
;
    }
    XY-Zmin
    {
        type            calculated;
        value           nonuniform List<scalar> 9(0.00206354 0.0020876 0.00197503 0.0016336 0.00187848 0.00217075 0.00157887 0.00161091 0.00193883);
    }
    YZ-Xmin
    {
        type            calculated;
        value           uniform 2e-05;
    }
    XZ-Ymin
    {
        type            calculated;
        value           nonuniform List<scalar> 9(0.0020445 0.00202816 0.00186601 0.0016186 0.00175871 0.00180624 0.00157887 0.00141456 0.00140018);
    }
    XY-Zmax
    {
        type            calculated;
        value           nonuniform List<scalar> 9(0.00186601 0.00195381 0.00196075 0.00180624 0.00207004 0.00208196 0.00140018 0.00184636 0.00225468);
    }
    XZ-Ymax
    {
        type            calculated;
        value           nonuniform List<scalar> 9(0.00197503 0.00198721 0.00196075 0.00217075 0.00213242 0.00208196 0.00193883 0.00220473 0.00225468);
    }
    YZ-Xmax
    {
        type            calculated;
        value           nonuniform List<scalar> 9(1.00015e-05 1.00108e-05 1.01231e-05 1.00035e-05 1.46167e-05 8.33613e-05 0.00010168 0.000242965 0.000509694);
    }
}


// ************************************************************************* //
