/*--------------------------------*- C++ -*----------------------------------*\
| =========                 |                                                 |
| \\      /  F ield         | OpenFOAM: The Open Source CFD Toolbox           |
|  \\    /   O peration     | Version:  2312                                  |
|   \\  /    A nd           | Website:  www.openfoam.com                      |
|    \\/     M anipulation  |                                                 |
\*---------------------------------------------------------------------------*/
FoamFile
{
    version     2.0;
    format      ascii;
    arch        "LSB;label=32;scalar=64";
    class       volSymmTensorField;
    location    "400";
    object      turbulenceProperties:R;
}
// * * * * * * * * * * * * * * * * * * * * * * * * * * * * * * * * * * * * * //

dimensions      [0 2 -2 0 0 0 0];

internalField   nonuniform List<symmTensor> 
27
(
(0.0274436 -0.00317869 -0.00328123 0.0250437 -0.000394444 0.0256575)
(0.017663 -0.00244632 -0.000868414 0.0159214 -0.000170714 0.0163109)
(0.0208503 -0.00207536 0.00220251 0.0203765 0.000153865 0.0209782)
(0.019989 -0.000879702 -0.00334544 0.0187572 -0.00035862 0.0188819)
(0.00958092 -0.000843843 -0.00109438 0.00822415 1.93348e-05 0.0082659)
(0.0228757 0.000202283 0.00485661 0.0237962 0.000558366 0.0241129)
(0.0359898 0.00601636 -0.00538946 0.0386546 -0.000659579 0.0372907)
(0.019969 0.0035635 -2.86583e-05 0.0215235 0.000124536 0.0207045)
(0.0224623 0.00249471 0.00236334 0.0232733 0.000308635 0.0229363)
(0.0203658 -0.00264037 -0.00257305 0.0203505 -0.000354928 0.0207134)
(0.0192965 -0.00382152 -0.00144154 0.0192128 -0.0002089 0.0197414)
(0.0526635 -0.0104115 0.0104008 0.048015 0.000774531 0.05034)
(0.0226156 -0.00218625 -0.004721 0.0238318 -0.000187556 0.0237802)
(0.00731368 -0.000699341 -0.000691606 0.00785357 -1.08739e-05 0.00781929)
(0.0023901 -2.13159e-06 5.47086e-05 0.00238864 2.59857e-06 0.00238944)
(0.00108392 5.42073e-06 -5.21707e-06 0.00108446 -3.8423e-07 0.00108374)
(0.00776331 0.000536663 6.1944e-06 0.00789294 6.25125e-06 0.0078254)
(0.0264001 0.00317495 0.00306431 0.0272755 0.000300313 0.0270177)
(0.000201459 -2.99519e-07 -2.88409e-07 0.000201436 -8.96396e-09 0.00020144)
(0.000398487 -2.11507e-06 2.60592e-07 0.000397817 5.62927e-08 0.000397735)
(0.00189012 -2.59058e-05 2.31812e-05 0.00188154 1.40182e-06 0.00188058)
(0.000255289 -4.10441e-08 -7.84067e-07 0.000255143 5.07967e-08 0.000255074)
(0.00298564 -0.000233058 -7.06784e-05 0.00278155 -6.43177e-05 0.00271385)
(0.0530291 -0.00446255 0.0181354 0.0511898 -0.00136934 0.0499494)
(0.0964221 0.0237818 -0.0268766 0.0897938 0.00117679 0.0916684)
(0.15357 0.0672163 -0.00689042 0.150776 -0.00132547 0.155138)
(0.473349 0.149214 0.15839 0.485058 0.000168174 0.497486)
)
;

boundaryField
{
    aggregate
    {
        type            calculated;
        value           nonuniform List<symmTensor> 
24
(
(0.223001 -1.20561 1.05551 -0.269524 0.126277 0.0465232)
(1.93599 0.143102 -0.029543 -0.97177 -0.0048507 -0.964221)
(-0.0202711 1.38354 0.670358 0.184353 0.0983928 -0.164082)
(0.0896555 0.507486 -1.42686 0.0823015 -0.14016 -0.171957)
(1.86248 0.122248 0.05575 -0.934131 -0.00253419 -0.92835)
(-0.00543212 1.25251 0.800404 0.111991 0.159749 -0.106559)
(0.138165 -0.982345 1.27187 -0.174617 0.146281 0.036452)
(2.02971 0.157769 -0.047702 -1.01562 -0.00438597 -1.01409)
(0.173567 -1.22371 -1.03776 -0.226068 -0.108635 0.052501)
(0.0671066 0.635026 -1.39274 0.0810682 -0.125842 -0.148175)
(1.89467 0.141137 0.0364346 -0.947586 0.000231667 -0.947086)
(0.181043 -1.25769 -0.778705 -0.19917 -0.116661 0.0181272)
(0.0168724 -0.740837 0.620777 -0.137732 0.0790518 0.12086)
(-1.13099 -0.156791 -0.0566973 0.563761 -0.00339202 0.56723)
(-0.118323 0.822691 0.401568 0.172677 0.0937865 -0.0543535)
(-0.0160211 0.346483 -1.03816 0.0917178 -0.0843874 -0.0756967)
(-1.34733 -0.132393 -0.0555868 0.671694 -0.00155729 0.675635)
(-0.102271 0.92282 0.587823 0.118648 0.0971517 -0.0163767)
(-0.00111181 -0.820991 0.985307 -0.0344893 0.0799988 0.0356011)
(-1.60523 -0.097575 -0.0191126 0.802796 -0.00132669 0.802431)
(-0.0134623 -0.981649 -0.801706 -0.0632361 -0.0413908 0.0766984)
(-0.0824065 0.502933 -1.2318 0.078605 -0.0500972 0.00380141)
(-1.64734 -0.0718715 -0.0296714 0.824011 -0.00021476 0.823334)
(-0.0158038 -1.09483 -0.673331 -0.0278253 -0.0385919 0.043629)
)
;
    }
    XY-Zmin
    {
        type            calculated;
        value           nonuniform List<symmTensor> 9((0.218597 -0.504735 -1.37103 -0.162478 -0.173214 -0.0561191) (0.112631 -0.137502 -1.42643 -0.0799081 -0.158872 -0.0327232) (-0.134229 0.605253 -1.07963 0.133855 -0.127883 0.000373984) (-0.0022253 -0.329897 -0.808012 -0.00413233 -0.128011 0.00635763) (-0.0812398 -0.198643 -1.13655 0.0292648 -0.0680862 0.0519751) (-0.0160844 0.688887 -1.3384 0.0524489 -0.0801651 -0.0363645) (0.0163453 -0.313067 -0.65265 -0.00806386 -0.0277681 -0.00828147) (0.0554456 -0.0187295 -0.691661 -0.0111086 0.0495729 -0.044337) (0.0787064 0.50034 -1.04191 -0.0607447 0.0641048 -0.0179617));
    }
    YZ-Xmin
    {
        type            calculated;
        value           nonuniform List<symmTensor> 9((0.0177451 -0.0026149 -0.00253641 0.0193554 -0.000304998 0.01983) (0.0133015 -0.00245191 -0.00102744 0.0146969 -0.000162267 0.0150671) (0.0170348 -0.00247906 0.00253757 0.0165207 0.000189733 0.0172626) (0.0136521 -0.000835013 -0.00250815 0.0160622 -0.000269801 0.0161561) (0.00803773 -0.000798237 -0.000997831 0.00990991 1.47179e-05 0.00994169) (0.0124622 0.000278968 0.00265931 0.013077 0.000320282 0.0132586) (0.0191304 0.00304907 -0.00275256 0.0204857 -0.000337676 0.0197875) (0.0137436 0.00296457 -2.68736e-05 0.0151639 0.000104385 0.0144775) (0.0187628 0.00296883 0.00271927 0.0197931 0.00035533 0.0194051));
    }
    XZ-Ymin
    {
        type            calculated;
        value           nonuniform List<symmTensor> 9((0.293383 -1.34515 -0.516187 -0.305799 -0.0708792 0.0124161) (0.261307 -1.28005 -0.166587 -0.263242 -0.0751269 0.00193502) (0.0674085 -0.935842 0.504086 -0.16409 0.00872441 0.0966811) (0.0458208 -0.801075 -0.318515 -0.134679 -0.0709865 0.0888584) (0.0349065 -0.944543 -0.139887 -0.11299 -0.0512866 0.0780831) (0.146409 -0.871046 0.468517 -0.188153 0.0316363 0.0417448) (0.038619 -0.639905 -0.301455 -0.0569656 -0.00634673 0.0183466) (0.0770752 -0.503156 0.0339624 -0.0561888 0.0205464 -0.0208864) (0.0877861 -0.49478 0.2617 -0.0678445 0.0273246 -0.0199416));
    }
    XY-Zmax
    {
        type            calculated;
        value           nonuniform List<symmTensor> 9((0.0103695 -0.474986 0.934149 -0.0980501 0.0807077 0.0876806) (-0.0966332 0.0225541 1.03538 0.00599743 0.0817581 0.0906358) (-0.0976578 0.560284 1.05972 0.0844848 0.106133 0.013173) (0.103047 -0.468999 0.902598 -0.106348 0.0870581 0.00330044) (-0.0113725 -0.0236309 1.21465 -0.0276238 0.0601032 0.0389963) (-0.103348 0.631507 1.20976 0.0707813 0.0921046 0.0325668) (0.0721907 -0.292458 0.51287 -0.0246983 0.0370707 -0.0474923) (0.0379702 -0.111705 0.944982 -0.00807085 -0.0363935 -0.0298993) (-0.0659573 0.670286 1.44827 -0.0133589 0.00952213 0.0793162));
    }
    XZ-Ymax
    {
        type            calculated;
        value           nonuniform List<symmTensor> 9((-0.172666 1.10036 -0.542187 0.21446 -0.0651356 -0.0417936) (-0.171582 1.10597 -0.00474949 0.221255 0.0150969 -0.0496731) (-0.131096 1.09352 0.530778 0.15574 0.0615615 -0.024644) (-0.0407848 1.3878 -0.663006 0.104309 -0.0412435 -0.0635239) (-0.123637 1.32616 0.00769854 0.170099 0.0189299 -0.046462) (-0.127867 1.24223 0.609502 0.13288 0.0602942 -0.00501246) (0.100546 1.07291 -0.565451 -0.101079 0.0337058 0.000533021) (0.00917363 1.41899 -0.0649135 -0.0331195 0.0249465 0.0239458) (-0.0582793 1.47486 0.711507 0.00813046 0.0300618 0.0501488));
    }
    YZ-Xmax
    {
        type            calculated;
        value           nonuniform List<symmTensor> 9((0.000210956 -3.19886e-07 -2.9655e-07 0.000210967 -8.96396e-09 0.000210971) (0.000403901 -2.23116e-06 1.5471e-07 0.000404032 5.62927e-08 0.00040395) (0.00187929 -2.69029e-05 2.25523e-05 0.00187872 1.40182e-06 0.00187776) (0.000250314 -1.05757e-07 -7.80317e-07 0.000250408 5.07967e-08 0.000250339) (0.00289867 -0.000305046 -9.08559e-05 0.00296385 -6.43177e-05 0.00289616) (0.0504932 -0.00523642 0.0177549 0.05138 -0.00136934 0.0501397) (0.0909971 0.0221834 -0.0268065 0.0879585 0.00117679 0.089833) (0.146789 0.0633472 -0.00628973 0.140827 -0.00132547 0.145188) (0.477826 0.144492 0.159663 0.474395 0.000168174 0.486823));
    }
}


// ************************************************************************* //
