/*--------------------------------*- C++ -*----------------------------------*\
| =========                 |                                                 |
| \\      /  F ield         | OpenFOAM: The Open Source CFD Toolbox           |
|  \\    /   O peration     | Version:  2312                                  |
|   \\  /    A nd           | Website:  www.openfoam.com                      |
|    \\/     M anipulation  |                                                 |
\*---------------------------------------------------------------------------*/
FoamFile
{
    version     2.0;
    format      ascii;
    arch        "LSB;label=32;scalar=64";
    class       volScalarField;
    location    "400";
    object      turbulenceProperties:k;
}
// * * * * * * * * * * * * * * * * * * * * * * * * * * * * * * * * * * * * * //

dimensions      [0 2 -2 0 0 0 0];

internalField   nonuniform List<scalar> 
27
(
0.0390724
0.0249477
0.0311025
0.028814
0.0130355
0.0353924
0.0559675
0.0310985
0.0343359
0.0307149
0.0291254
0.0755093
0.0351139
0.0114933
0.00358409
0.00162606
0.0117408
0.0403466
0.000302167
0.000597019
0.00282612
0.000382753
0.00424052
0.0770842
0.138942
0.229742
0.727947
)
;

boundaryField
{
    aggregate
    {
        type            calculated;
        value           uniform 0;
    }
    XY-Zmin
    {
        type            calculated;
        value           uniform 0;
    }
    YZ-Xmin
    {
        type            calculated;
        value           nonuniform List<scalar> 9(0.0284652 0.0215327 0.025409 0.0229352 0.0139447 0.0193989 0.0297018 0.0216925 0.0289805);
    }
    XZ-Ymin
    {
        type            calculated;
        value           uniform 0;
    }
    XY-Zmax
    {
        type            calculated;
        value           uniform 0;
    }
    XZ-Ymax
    {
        type            calculated;
        value           uniform 0;
    }
    YZ-Xmax
    {
        type            calculated;
        value           nonuniform List<scalar> 9(0.000316447 0.000605941 0.00281788 0.000375531 0.00437934 0.0760065 0.134394 0.216402 0.719522);
    }
}


// ************************************************************************* //
