/*--------------------------------*- C++ -*----------------------------------*\
| =========                 |                                                 |
| \\      /  F ield         | OpenFOAM: The Open Source CFD Toolbox           |
|  \\    /   O peration     | Version:  2312                                  |
|   \\  /    A nd           | Website:  www.openfoam.com                      |
|    \\/     M anipulation  |                                                 |
\*---------------------------------------------------------------------------*/
FoamFile
{
    version     2.0;
    format      ascii;
    arch        "LSB;label=32;scalar=64";
    class       volSymmTensorField;
    location    "400";
    object      turbulenceProperties:devReff;
}
// * * * * * * * * * * * * * * * * * * * * * * * * * * * * * * * * * * * * * //

dimensions      [0 2 -2 0 0 0 0];

internalField   nonuniform List<symmTensor> 
27
(
(0.00247421 -0.00563657 -0.0058184 -0.00178139 -0.000699442 -0.000692815)
(0.00201141 -0.00477158 -0.00169386 -0.00138553 -0.000332981 -0.000625882)
(0.000257418 -0.00463454 0.00491847 -0.000800455 0.000343598 0.000543037)
(0.00136617 -0.00154153 -0.00586231 -0.000792387 -0.000628421 -0.000573785)
(0.00156853 -0.00148619 -0.00192744 -0.000821028 3.40526e-05 -0.000747499)
(-0.00113176 0.000318313 0.00764239 0.000316701 0.000878648 0.000815057)
(-0.00199867 0.00909648 -0.00814864 0.00203043 -0.000997254 -3.17599e-05)
(-0.00140324 0.0065504 -5.26794e-05 0.00145433 0.000228921 -5.1083e-05)
(-0.000921467 0.00536687 0.00508423 0.000823246 0.000663966 9.82213e-05)
(-0.00019607 -0.00467225 -0.00455313 -0.000223078 -0.00062806 0.000419148)
(-0.000187244 -0.00594217 -0.00224148 -0.000317354 -0.000324823 0.000504598)
(0.00290678 -0.0130225 0.0130091 -0.0029074 0.000968769 6.23778e-07)
(-0.0011795 -0.00324938 -0.00701672 0.000628115 -0.00027876 0.000551386)
(-0.000816052 -0.00163759 -0.00161947 0.00044816 -2.54624e-05 0.000367893)
(3.88122e-05 -0.000116843 0.00299884 -4.15419e-05 0.00014244 2.7297e-06)
(-7.07658e-05 0.00319361 -0.00307362 0.000246948 -0.000226368 -0.000176182)
(-0.000438153 0.0036792 4.24669e-05 0.000450591 4.28567e-05 -1.24378e-05)
(-0.000975486 0.00622281 0.00600598 0.00074037 0.000588605 0.000235116)
(9.49479e-05 -0.00199579 -0.00192176 -6.066e-05 -5.97298e-05 -3.42879e-05)
(0.000440006 -0.00196467 0.000242061 -0.000181806 5.22896e-05 -0.000258199)
(0.000496667 -0.00212965 0.00190567 -0.00020887 0.00011524 -0.000287797)
(0.00034287 -0.000117034 -0.0022357 -7.30037e-05 0.000144843 -0.000269866)
(0.000502226 -0.000737874 -0.000223772 -0.000143952 -0.000203633 -0.000358274)
(0.00186315 -0.00507084 0.0206074 -0.000226874 -0.00155599 -0.00163628)
(0.00420785 0.0263758 -0.0298082 -0.00314343 0.00130515 -0.00106442)
(0.000425995 0.0701015 -0.00718619 -0.00248734 -0.00138236 0.00206134)
(-0.012188 0.1522 0.16156 -0.000244583 0.00017154 0.0124325)
)
;

boundaryField
{
    aggregate
    {
        type            calculated;
        value           nonuniform List<symmTensor> 
24
(
(0.224468 -1.21355 1.06246 -0.271298 0.127108 0.0468293)
(2.05772 0.1521 -0.0314006 -1.03287 -0.0051557 -1.02485)
(-0.0204476 1.39558 0.676194 0.185958 0.0992495 -0.165511)
(0.0904496 0.511981 -1.43949 0.0830305 -0.141402 -0.17348)
(1.98174 0.130076 0.0593197 -0.993944 -0.00269645 -0.987793)
(-0.00546848 1.2609 0.805762 0.112741 0.160819 -0.107272)
(0.139344 -0.990721 1.28272 -0.176106 0.147528 0.0367629)
(2.15457 0.167474 -0.0506364 -1.07809 -0.00465577 -1.07647)
(0.174686 -1.2316 -1.04444 -0.227525 -0.109335 0.0528393)
(0.0675524 0.639245 -1.402 0.0816068 -0.126678 -0.149159)
(2.01504 0.150104 0.0387493 -1.00779 0.000246385 -1.00725)
(0.182634 -1.26875 -0.785552 -0.200921 -0.117687 0.0182866)
(0.0170125 -0.746988 0.625931 -0.138876 0.0797081 0.121863)
(-1.22206 -0.169417 -0.0612627 0.609157 -0.00366515 0.612904)
(-0.119624 0.831734 0.405982 0.174575 0.0948174 -0.054951)
(-0.0161847 0.350021 -1.04876 0.0926544 -0.0852492 -0.0764697)
(-1.44762 -0.142248 -0.0597247 0.721695 -0.00167321 0.725929)
(-0.10306 0.929939 0.592357 0.119563 0.0979011 -0.0165031)
(-0.00112234 -0.828769 0.994641 -0.034816 0.0807567 0.0359384)
(-1.71558 -0.104283 -0.0204266 0.857985 -0.00141789 0.857595)
(-0.0135587 -0.988676 -0.807445 -0.0636888 -0.0416871 0.0772475)
(-0.0829897 0.506493 -1.24052 0.0791614 -0.0504517 0.00382831)
(-1.75925 -0.0767536 -0.031687 0.879985 -0.000229349 0.879262)
(-0.0159518 -1.10509 -0.679639 -0.0280859 -0.0389534 0.0440377)
)
;
    }
    XY-Zmin
    {
        type            calculated;
        value           nonuniform List<symmTensor> 9((0.219661 -0.507193 -1.37771 -0.163269 -0.174057 -0.0563924) (0.113173 -0.138163 -1.4333 -0.0802927 -0.159636 -0.0328807) (-0.134912 0.608333 -1.08513 0.134536 -0.128534 0.000375888) (-0.00223901 -0.331929 -0.812989 -0.00415778 -0.1288 0.00639678) (-0.0816746 -0.199707 -1.14264 0.0294214 -0.0684506 0.0522532) (-0.0161589 0.692076 -1.34459 0.0526917 -0.0805361 -0.0365328) (0.0164495 -0.315063 -0.65681 -0.00811526 -0.0279451 -0.00833425) (0.0557919 -0.0188465 -0.695982 -0.011178 0.0498825 -0.0446139) (0.0791144 0.502934 -1.04732 -0.0610597 0.0644372 -0.0180548));
    }
    YZ-Xmin
    {
        type            calculated;
        value           nonuniform List<symmTensor> 9((-0.00246353 -0.0052298 -0.00507282 0.000757081 -0.000609997 0.00170645) (-0.00210736 -0.00490382 -0.00205488 0.000683493 -0.000324533 0.00142387) (0.000190827 -0.00495811 0.00507515 -0.000837284 0.000379467 0.000646457) (-0.00327608 -0.00167003 -0.0050163 0.00154419 -0.000539602 0.00173189) (-0.00251743 -0.00159647 -0.00199566 0.00122693 2.94357e-05 0.00129049) (-0.00094084 0.000557936 0.00531861 0.000288761 0.000640564 0.000652079) (-0.00134157 0.00609814 -0.00550512 0.00136905 -0.000675352 -2.74845e-05) (-0.00143617 0.00592913 -5.37471e-05 0.00140453 0.00020877 3.16395e-05) (-0.00111499 0.00593765 0.00543853 0.000945499 0.000710661 0.000169486));
    }
    XZ-Ymin
    {
        type            calculated;
        value           nonuniform List<symmTensor> 9((0.294825 -1.35176 -0.518724 -0.307302 -0.0712276 0.0124772) (0.262602 -1.28639 -0.167413 -0.264547 -0.0754992 0.00194461) (0.0677717 -0.940884 0.506802 -0.164974 0.00877141 0.097202) (0.0461056 -0.806055 -0.320495 -0.135516 -0.0714278 0.0894108) (0.0351061 -0.949944 -0.140687 -0.113636 -0.0515798 0.0785296) (0.147224 -0.875895 0.471125 -0.189201 0.0318124 0.0419772) (0.0388651 -0.643984 -0.303376 -0.0573287 -0.00638719 0.0184635) (0.0776239 -0.506738 0.0342042 -0.0565888 0.0206926 -0.0210351) (0.0884176 -0.49834 0.263582 -0.0683325 0.0275212 -0.020085));
    }
    XY-Zmax
    {
        type            calculated;
        value           nonuniform List<symmTensor> 9((0.0104254 -0.477545 0.939182 -0.0985784 0.0811426 0.088153) (-0.0971303 0.0226701 1.04071 0.00602829 0.0821787 0.0911021) (-0.0981584 0.563156 1.06516 0.0849179 0.106677 0.0132405) (0.103621 -0.47161 0.907623 -0.10694 0.0875428 0.00331882) (-0.0114277 -0.0237456 1.22055 -0.0277579 0.060395 0.0391856) (-0.103847 0.634555 1.2156 0.0711229 0.0925491 0.032724) (0.07271 -0.294562 0.516559 -0.024876 0.0373373 -0.047834) (0.0381769 -0.112314 0.950128 -0.0081148 -0.0365917 -0.0300621) (-0.0662511 0.673272 1.45472 -0.0134184 0.00956455 0.0796696));
    }
    XZ-Ymax
    {
        type            calculated;
        value           nonuniform List<symmTensor> 9((-0.173545 1.10596 -0.544946 0.215551 -0.0654671 -0.0420063) (-0.172449 1.11156 -0.00477351 0.222374 0.0151733 -0.0499244) (-0.131768 1.09913 0.533499 0.156539 0.0618771 -0.0247703) (-0.0409735 1.39422 -0.666074 0.104791 -0.0414344 -0.0638178) (-0.12422 1.33241 0.00773482 0.170901 0.0190191 -0.0466809) (-0.128484 1.24823 0.612444 0.133521 0.0605852 -0.00503665) (0.101067 1.07847 -0.568382 -0.101603 0.0338805 0.000535785) (0.00921543 1.42546 -0.0652093 -0.0332704 0.0250601 0.024055) (-0.0585389 1.48143 0.714676 0.00816669 0.0301957 0.0503722));
    }
    YZ-Xmax
    {
        type            calculated;
        value           nonuniform List<symmTensor> 9((-5.58789e-05 -0.00213151 -0.00197601 1.47534e-05 -5.97298e-05 4.11255e-05) (-5.53415e-05 -0.0020725 0.000143709 6.5867e-05 5.22896e-05 -1.05256e-05) (5.7605e-05 -0.00221162 0.00185397 1.06607e-05 0.00011524 -6.82657e-05) (-0.000113672 -0.000301557 -0.00222501 0.000155267 0.000144843 -4.15954e-05) (-6.61504e-05 -0.000965791 -0.000287655 0.000140236 -0.000203633 -7.40859e-05) (-0.000201984 -0.00595021 0.0201751 0.000805693 -0.00155599 -0.000603709) (0.00155367 0.024603 -0.0297304 -0.00181634 0.00130515 0.000262669) (0.00262892 0.0660664 -0.00655972 -0.0035888 -0.00138236 0.000959876) (-0.00189248 0.147383 0.162859 -0.00539232 0.00017154 0.00728481));
    }
}


// ************************************************************************* //
