/*--------------------------------*- C++ -*----------------------------------*\
| =========                 |                                                 |
| \\      /  F ield         | OpenFOAM: The Open Source CFD Toolbox           |
|  \\    /   O peration     | Version:  2312                                  |
|   \\  /    A nd           | Website:  www.openfoam.com                      |
|    \\/     M anipulation  |                                                 |
\*---------------------------------------------------------------------------*/
FoamFile
{
    version     2.0;
    format      ascii;
    arch        "LSB;label=32;scalar=64";
    class       volVectorField;
    location    "400";
    object      U;
}
// * * * * * * * * * * * * * * * * * * * * * * * * * * * * * * * * * * * * * //

dimensions      [0 1 -1 0 0 0 0];

internalField   nonuniform List<vector> 
27
(
(30.949 3.92272 0.214995)
(30.3192 3.50049 1.45598)
(25.6165 2.81008 1.34949)
(31.7883 3.58299 -0.134988)
(30.632 3.33741 1.04911)
(27.1886 1.79891 1.19394)
(27.4432 3.21783 -0.00513228)
(27.6284 3.39111 0.174462)
(27.2862 2.38859 0.132972)
(23.2524 3.57907 0.876713)
(25.5798 2.60074 1.10394)
(24.6497 2.80046 0.467684)
(28.112 1.84444 -0.335791)
(28.531 1.26673 0.346922)
(29.1837 1.43312 1.0408)
(30.9027 1.79643 0.116946)
(30.1936 2.48887 0.464641)
(29.3783 1.87119 0.364987)
(21.0711 0.959676 -0.171038)
(18.4428 0.533558 -0.790665)
(18.1926 1.19667 -0.550216)
(21.5479 -1.6577 -0.12778)
(22.9336 -1.67584 -0.491)
(25.4704 -0.635455 0.00367862)
(26.9724 -1.62704 0.266661)
(31.5127 -0.801267 0.973407)
(32.3859 -0.00672023 0.87162)
)
;

boundaryField
{
    aggregate
    {
        type            noSlip;
    }
    XY-Zmin
    {
        type            noSlip;
    }
    YZ-Xmin
    {
        type            freestreamVelocity;
        freestreamValue uniform (25.75 3.62 0);
        value           nonuniform List<vector> 9((25.7753 3.62147 0.00104559) (25.7722 3.61942 0.00707464) (25.7494 3.61606 0.00655671) (25.7793 3.61982 -0.000655656) (25.7737 3.61863 0.00509477) (25.757 3.61118 0.00578196) (25.7582 3.61805 -2.49455e-05) (25.7591 3.61889 0.000848373) (25.7575 3.61403 0.000645022));
    }
    XZ-Ymin
    {
        type            noSlip;
    }
    XY-Zmax
    {
        type            noSlip;
    }
    XZ-Ymax
    {
        type            noSlip;
    }
    YZ-Xmax
    {
        type            freestreamVelocity;
        freestreamValue uniform (25.75 3.62 0);
        value           nonuniform List<vector> 9((21.0732 0.960841 -0.170963) (18.46 0.540791 -0.788812) (18.217 1.20449 -0.548442) (21.5734 -1.62575 -0.127007) (22.9529 -1.63956 -0.487636) (25.4718 -0.614855 0.00366081) (26.965 -1.59526 0.265047) (31.4922 -0.785541 0.969944) (32.3748 -0.000643082 0.870159));
    }
}


// ************************************************************************* //
