/*--------------------------------*- C++ -*----------------------------------*\
| =========                 |                                                 |
| \\      /  F ield         | OpenFOAM: The Open Source CFD Toolbox           |
|  \\    /   O peration     | Version:  2312                                  |
|   \\  /    A nd           | Website:  www.openfoam.com                      |
|    \\/     M anipulation  |                                                 |
\*---------------------------------------------------------------------------*/
FoamFile
{
    version     2.0;
    format      ascii;
    arch        "LSB;label=32;scalar=64";
    class       volVectorField;
    location    "0.01";
    object      Ur;
}
// * * * * * * * * * * * * * * * * * * * * * * * * * * * * * * * * * * * * * //

dimensions      [0 1 -1 0 0 0 0];

internalField   nonuniform List<vector> 
6000
(
(-0.0196522 -0.447024 0)
(-0.0543724 -0.446663 0)
(-0.0598289 -0.441147 0)
(-0.0572813 -0.437485 0)
(-0.0502056 -0.435853 0)
(-0.0420803 -0.434734 0)
(-0.0344923 -0.433847 0)
(-0.0279211 -0.433147 0)
(-0.022373 -0.432602 0)
(-0.0176852 -0.432188 0)
(-0.0136719 -0.431878 0)
(-0.0101641 -0.431653 0)
(-0.00701792 -0.431497 0)
(-0.0041142 -0.431399 0)
(-0.00134878 -0.431351 0)
(0.00137176 -0.431351 0)
(0.00413667 -0.431398 0)
(0.00703904 -0.431496 0)
(0.0101824 -0.431651 0)
(0.0136848 -0.431875 0)
(0.0176911 -0.432185 0)
(0.0223713 -0.432599 0)
(0.0279126 -0.433144 0)
(0.0344792 -0.433844 0)
(0.0420653 -0.434731 0)
(0.0501911 -0.435851 0)
(0.0572691 -0.437484 0)
(0.0598204 -0.441147 0)
(0.054367 -0.446663 0)
(0.01965 -0.447026 0)
(0.000205118 -0.841823 0)
(-0.0129491 -0.834808 0)
(-0.0326686 -0.823632 0)
(-0.039659 -0.815958 0)
(-0.0382938 -0.811331 0)
(-0.0337122 -0.80782 0)
(-0.0283359 -0.805136 0)
(-0.0232489 -0.803085 0)
(-0.0187787 -0.801531 0)
(-0.0149238 -0.800369 0)
(-0.0115832 -0.799504 0)
(-0.00863747 -0.798882 0)
(-0.00597678 -0.798449 0)
(-0.00350891 -0.798177 0)
(-0.00115098 -0.798047 0)
(0.00117187 -0.798047 0)
(0.00352981 -0.798176 0)
(0.00599672 -0.798447 0)
(0.00865535 -0.798878 0)
(0.0115963 -0.799498 0)
(0.0149302 -0.800361 0)
(0.0187779 -0.801522 0)
(0.0232416 -0.803076 0)
(0.0283235 -0.805127 0)
(0.0336972 -0.807813 0)
(0.038279 -0.811327 0)
(0.0396463 -0.815956 0)
(0.0326589 -0.823632 0)
(0.0129431 -0.834809 0)
(-0.000207032 -0.841826 0)
(0.0046637 -0.816954 0)
(0.00196432 -0.810362 0)
(-0.0115363 -0.804583 0)
(-0.0205958 -0.798088 0)
(-0.0238912 -0.792194 0)
(-0.0233265 -0.787213 0)
(-0.0208189 -0.783251 0)
(-0.0176889 -0.780214 0)
(-0.014588 -0.777942 0)
(-0.0117431 -0.776261 0)
(-0.00919159 -0.775018 0)
(-0.00689224 -0.774128 0)
(-0.00478791 -0.773506 0)
(-0.00281783 -0.773117 0)
(-0.000925219 -0.77293 0)
(0.000942942 -0.772932 0)
(0.00283619 -0.773116 0)
(0.00480696 -0.773507 0)
(0.00691121 -0.774124 0)
(0.00920434 -0.775009 0)
(0.0117497 -0.776251 0)
(0.0145895 -0.77793 0)
(0.0176836 -0.780201 0)
(0.0208059 -0.783239 0)
(0.0233107 -0.787206 0)
(0.0238766 -0.792189 0)
(0.0205826 -0.798086 0)
(0.0115263 -0.804583 0)
(-0.00197155 -0.810363 0)
(-0.00466676 -0.816958 0)
(0.0021608 -0.801005 0)
(0.00191922 -0.795605 0)
(-0.00399026 -0.793323 0)
(-0.0102257 -0.789372 0)
(-0.0141932 -0.784476 0)
(-0.0155149 -0.779597 0)
(-0.0149325 -0.775332 0)
(-0.013345 -0.771872 0)
(-0.0113823 -0.769202 0)
(-0.00936872 -0.767177 0)
(-0.00744428 -0.765661 0)
(-0.00563797 -0.76457 0)
(-0.00394604 -0.763797 0)
(-0.00233347 -0.763317 0)
(-0.000766478 -0.763082 0)
(0.000782673 -0.763088 0)
(0.00234742 -0.763314 0)
(0.00396273 -0.763804 0)
(0.00566064 -0.764561 0)
(0.00746089 -0.765645 0)
(0.00937867 -0.767164 0)
(0.0113854 -0.769186 0)
(0.0133403 -0.771855 0)
(0.0149205 -0.775316 0)
(0.0155003 -0.779596 0)
(0.0141755 -0.784473 0)
(0.010208 -0.789376 0)
(0.00398003 -0.793327 0)
(-0.0019279 -0.795605 0)
(-0.00216559 -0.801013 0)
(0.00109065 -0.784275 0)
(0.00131046 -0.779591 0)
(-0.00140853 -0.777171 0)
(-0.00512454 -0.774178 0)
(-0.00818636 -0.770357 0)
(-0.0098379 -0.766194 0)
(-0.0101675 -0.762306 0)
(-0.00959178 -0.75893 0)
(-0.00850654 -0.756229 0)
(-0.00719927 -0.754097 0)
(-0.00583554 -0.752471 0)
(-0.00448279 -0.751283 0)
(-0.00316835 -0.750422 0)
(-0.0018874 -0.749897 0)
(-0.000624923 -0.749628 0)
(0.000634815 -0.74964 0)
(0.00189959 -0.749883 0)
(0.00318126 -0.750434 0)
(0.00450568 -0.751265 0)
(0.0058599 -0.752442 0)
(0.00721666 -0.754081 0)
(0.00851043 -0.756206 0)
(0.00958703 -0.758912 0)
(0.0101616 -0.762291 0)
(0.00982618 -0.766209 0)
(0.00816001 -0.770356 0)
(0.00509947 -0.774197 0)
(0.00139747 -0.777184 0)
(-0.0013193 -0.779591 0)
(-0.00109566 -0.784287 0)
(0.00093798 -0.769472 0)
(0.00160925 -0.765238 0)
(0.000342332 -0.762283 0)
(-0.00188152 -0.759452 0)
(-0.0040634 -0.756236 0)
(-0.00557406 -0.752742 0)
(-0.00628209 -0.749383 0)
(-0.00631557 -0.746335 0)
(-0.00586656 -0.743842 0)
(-0.00513721 -0.741794 0)
(-0.0042672 -0.740191 0)
(-0.00333222 -0.739014 0)
(-0.00237623 -0.738134 0)
(-0.00142422 -0.737614 0)
(-0.000482964 -0.737331 0)
(0.000481932 -0.737358 0)
(0.00145059 -0.737582 0)
(0.00239584 -0.738155 0)
(0.00334587 -0.738995 0)
(0.00428907 -0.740159 0)
(0.00515477 -0.741769 0)
(0.00586893 -0.743804 0)
(0.00631028 -0.746316 0)
(0.00627377 -0.749373 0)
(0.00555507 -0.752764 0)
(0.004035 -0.75623 0)
(0.00185875 -0.759488 0)
(-0.000355728 -0.762309 0)
(-0.00161572 -0.765239 0)
(-0.000939861 -0.769486 0)
(0.000981983 -0.757044 0)
(0.00215776 -0.752912 0)
(0.00187047 -0.749755 0)
(0.000617593 -0.747045 0)
(-0.000915574 -0.744254 0)
(-0.00225475 -0.741294 0)
(-0.00312696 -0.738453 0)
(-0.00353559 -0.735808 0)
(-0.00353744 -0.733659 0)
(-0.00325032 -0.731768 0)
(-0.00280794 -0.730262 0)
(-0.00224564 -0.729149 0)
(-0.00162265 -0.728296 0)
(-0.000973891 -0.727795 0)
(-0.000318304 -0.727524 0)
(0.000343735 -0.727594 0)
(0.00100203 -0.727769 0)
(0.00163878 -0.728329 0)
(0.00223396 -0.729139 0)
(0.00280533 -0.730251 0)
(0.00327416 -0.731726 0)
(0.00353987 -0.733589 0)
(0.00352134 -0.735786 0)
(0.0031109 -0.738435 0)
(0.00223726 -0.741318 0)
(0.000904099 -0.744243 0)
(-0.000638326 -0.747091 0)
(-0.00189357 -0.749793 0)
(-0.00216427 -0.752917 0)
(-0.000981099 -0.757058 0)
(0.0010587 -0.746218 0)
(0.00272423 -0.742116 0)
(0.00326959 -0.738924 0)
(0.00275082 -0.736501 0)
(0.00169394 -0.734146 0)
(0.000467525 -0.731703 0)
(-0.000537114 -0.729375 0)
(-0.00122447 -0.727095 0)
(-0.00156188 -0.725233 0)
(-0.00157297 -0.723543 0)
(-0.00148169 -0.722203 0)
(-0.00127198 -0.721203 0)
(-0.000933204 -0.72043 0)
(-0.000571458 -0.719991 0)
(-0.000189901 -0.71975 0)
(0.000214659 -0.719809 0)
(0.000593377 -0.719928 0)
(0.000948494 -0.720455 0)
(0.00121792 -0.721175 0)
(0.00145971 -0.722218 0)
(0.0016201 -0.723498 0)
(0.00154834 -0.725148 0)
(0.00119075 -0.726988 0)
(0.000516999 -0.729255 0)
(-0.000465966 -0.731654 0)
(-0.00166005 -0.73409 0)
(-0.00276004 -0.736538 0)
(-0.00329936 -0.738978 0)
(-0.00273811 -0.742132 0)
(-0.0010596 -0.746234 0)
(0.00114449 -0.73636 0)
(0.00323122 -0.732413 0)
(0.00449562 -0.729229 0)
(0.00452616 -0.727246 0)
(0.00380949 -0.725287 0)
(0.00265858 -0.723487 0)
(0.00157036 -0.721481 0)
(0.000775523 -0.719604 0)
(0.000146474 -0.717871 0)
(-0.000158722 -0.716403 0)
(-0.000345688 -0.715289 0)
(-0.000419361 -0.714453 0)
(-0.000308502 -0.713869 0)
(-0.000255581 -0.713648 0)
(-9.18399e-05 -0.713297 0)
(0.00014622 -0.713418 0)
(0.000243835 -0.713477 0)
(0.000313185 -0.713955 0)
(0.000321693 -0.714472 0)
(0.000300289 -0.715444 0)
(0.000193544 -0.716478 0)
(-9.66008e-05 -0.717936 0)
(-0.000720349 -0.719535 0)
(-0.00165157 -0.721385 0)
(-0.00268814 -0.723211 0)
(-0.00375957 -0.725229 0)
(-0.00455673 -0.727191 0)
(-0.00450013 -0.729285 0)
(-0.00324821 -0.732443 0)
(-0.00114902 -0.736383 0)
(0.0012165 -0.727009 0)
(0.00359185 -0.723342 0)
(0.00534587 -0.720141 0)
(0.00586418 -0.718455 0)
(0.0053536 -0.716889 0)
(0.00436011 -0.715611 0)
(0.00333832 -0.713816 0)
(0.00247193 -0.712388 0)
(0.00172033 -0.710914 0)
(0.00103976 -0.709811 0)
(0.000553099 -0.709004 0)
(0.000236079 -0.708355 0)
(1.72901e-05 -0.707842 0)
(-2.32338e-05 -0.707698 0)
(2.82255e-05 -0.707255 0)
(5.97319e-05 -0.707526 0)
(-4.11207e-05 -0.70767 0)
(-0.0001988 -0.708023 0)
(-0.000429551 -0.70838 0)
(-0.000666249 -0.709044 0)
(-0.000961937 -0.7099 0)
(-0.00152472 -0.711225 0)
(-0.0022875 -0.712694 0)
(-0.00324288 -0.714198 0)
(-0.00439304 -0.715559 0)
(-0.00541319 -0.717006 0)
(-0.00589563 -0.718445 0)
(-0.00538505 -0.720212 0)
(-0.00361356 -0.723391 0)
(-0.00122332 -0.727045 0)
(0.00126918 -0.717892 0)
(0.00378113 -0.714542 0)
(0.00586995 -0.711275 0)
(0.00678601 -0.7096 0)
(0.00641469 -0.708468 0)
(0.00573973 -0.707309 0)
(0.00475716 -0.706148 0)
(0.00370063 -0.704976 0)
(0.00282629 -0.704088 0)
(0.00186985 -0.703343 0)
(0.00125933 -0.702803 0)
(0.00081033 -0.70227 0)
(0.000332636 -0.701652 0)
(0.00023536 -0.70116 0)
(0.000122357 -0.700987 0)
(-0.000180394 -0.7012 0)
(-0.000344832 -0.701482 0)
(-0.000543834 -0.701723 0)
(-0.000860534 -0.702157 0)
(-0.00136342 -0.70256 0)
(-0.0020012 -0.703275 0)
(-0.00283852 -0.704371 0)
(-0.00366747 -0.705481 0)
(-0.00446028 -0.706692 0)
(-0.00551069 -0.7079 0)
(-0.00646564 -0.708808 0)
(-0.00674933 -0.709812 0)
(-0.00587096 -0.711383 0)
(-0.00378511 -0.714611 0)
(-0.00127101 -0.717937 0)
(0.0013234 -0.708815 0)
(0.00381275 -0.705762 0)
(0.00603952 -0.702478 0)
(0.00732738 -0.700674 0)
(0.0072812 -0.699923 0)
(0.00665946 -0.698902 0)
(0.00570371 -0.698446 0)
(0.00449969 -0.697506 0)
(0.00341389 -0.697051 0)
(0.00250494 -0.696497 0)
(0.00182014 -0.695935 0)
(0.00133996 -0.695438 0)
(0.000909638 -0.694821 0)
(0.000575614 -0.694145 0)
(5.12608e-05 -0.694319 0)
(-0.000450525 -0.69406 0)
(-0.000636921 -0.694251 0)
(-0.000888003 -0.694524 0)
(-0.00126017 -0.695105 0)
(-0.00193643 -0.695695 0)
(-0.00282562 -0.696171 0)
(-0.00375712 -0.69687 0)
(-0.00465364 -0.69742 0)
(-0.00545498 -0.698271 0)
(-0.00633301 -0.699393 0)
(-0.00705488 -0.700139 0)
(-0.00713427 -0.700903 0)
(-0.00594902 -0.702569 0)
(-0.00378093 -0.705825 0)
(-0.00131366 -0.708852 0)
(0.00137856 -0.699644 0)
(0.00379998 -0.696793 0)
(0.00590605 -0.693675 0)
(0.00741542 -0.691555 0)
(0.00784743 -0.691019 0)
(0.00720318 -0.690582 0)
(0.00619399 -0.690212 0)
(0.00503451 -0.689762 0)
(0.00380984 -0.689217 0)
(0.00301947 -0.688631 0)
(0.00232759 -0.688006 0)
(0.00181462 -0.68746 0)
(0.00148018 -0.687145 0)
(0.000790937 -0.686874 0)
(0.000187684 -0.686971 0)
(-0.000288729 -0.686643 0)
(-0.000834549 -0.68656 0)
(-0.00134035 -0.686881 0)
(-0.00186415 -0.687271 0)
(-0.00248327 -0.687973 0)
(-0.00331542 -0.688382 0)
(-0.00414985 -0.688775 0)
(-0.00512665 -0.689116 0)
(-0.00628742 -0.689641 0)
(-0.00714159 -0.690222 0)
(-0.00752146 -0.690898 0)
(-0.00721368 -0.691567 0)
(-0.00574408 -0.693662 0)
(-0.00372581 -0.696813 0)
(-0.00135735 -0.699651 0)
(0.00144018 -0.690306 0)
(0.00387847 -0.687565 0)
(0.00563689 -0.684713 0)
(0.00715461 -0.682216 0)
(0.00786698 -0.681556 0)
(0.0074129 -0.681634 0)
(0.00643638 -0.681245 0)
(0.00536892 -0.6809 0)
(0.00445957 -0.680316 0)
(0.00358222 -0.679867 0)
(0.00283798 -0.679323 0)
(0.0021674 -0.678929 0)
(0.00151098 -0.678806 0)
(0.00080799 -0.678989 0)
(0.00030271 -0.678719 0)
(-0.000130014 -0.67879 0)
(-0.000869971 -0.6787 0)
(-0.00163426 -0.678902 0)
(-0.0023375 -0.678982 0)
(-0.00298287 -0.679366 0)
(-0.00366685 -0.679789 0)
(-0.00445014 -0.680178 0)
(-0.00545666 -0.680548 0)
(-0.00659106 -0.68089 0)
(-0.00746068 -0.681026 0)
(-0.00773719 -0.681323 0)
(-0.00698778 -0.682122 0)
(-0.00552315 -0.684601 0)
(-0.00380206 -0.687523 0)
(-0.00141807 -0.690272 0)
(0.00152506 -0.680776 0)
(0.00406959 -0.678112 0)
(0.00559814 -0.67544 0)
(0.00675859 -0.673028 0)
(0.00744461 -0.671878 0)
(0.00727625 -0.671756 0)
(0.00668523 -0.671501 0)
(0.00578217 -0.671231 0)
(0.00480096 -0.670812 0)
(0.00396512 -0.670549 0)
(0.00320331 -0.670371 0)
(0.00233062 -0.670153 0)
(0.00140266 -0.670193 0)
(0.000832344 -0.670025 0)
(0.000469404 -0.669932 0)
(-0.000160637 -0.669992 0)
(-0.000953798 -0.67015 0)
(-0.00172315 -0.670149 0)
(-0.00251055 -0.67025 0)
(-0.0032602 -0.670129 0)
(-0.00395463 -0.670475 0)
(-0.00477532 -0.670808 0)
(-0.00572265 -0.671069 0)
(-0.00672766 -0.671341 0)
(-0.00746751 -0.671626 0)
(-0.00738966 -0.671505 0)
(-0.00655676 -0.672803 0)
(-0.00553316 -0.675278 0)
(-0.00402755 -0.678025 0)
(-0.00151199 -0.680709 0)
(0.00162138 -0.67106 0)
(0.00430919 -0.668465 0)
(0.00588999 -0.665931 0)
(0.00661456 -0.66394 0)
(0.00700938 -0.662422 0)
(0.00703966 -0.661896 0)
(0.00651536 -0.661648 0)
(0.00590991 -0.661263 0)
(0.00508282 -0.661283 0)
(0.00413667 -0.660975 0)
(0.0032814 -0.661039 0)
(0.00230686 -0.660769 0)
(0.00161358 -0.660872 0)
(0.00103887 -0.660692 0)
(0.000304768 -0.660698 0)
(-0.000385004 -0.660421 0)
(-0.000937942 -0.660569 0)
(-0.00145233 -0.660554 0)
(-0.00218551 -0.661077 0)
(-0.00306709 -0.660873 0)
(-0.00407691 -0.661252 0)
(-0.00509407 -0.661309 0)
(-0.00593337 -0.661355 0)
(-0.00668568 -0.661675 0)
(-0.00712326 -0.662239 0)
(-0.00717654 -0.662306 0)
(-0.00681335 -0.66366 0)
(-0.00595128 -0.665773 0)
(-0.00432547 -0.668372 0)
(-0.00162376 -0.670983 0)
(0.00166274 -0.661238 0)
(0.00447096 -0.658676 0)
(0.00626906 -0.656364 0)
(0.00713919 -0.654735 0)
(0.00741935 -0.653432 0)
(0.00727301 -0.653142 0)
(0.00669603 -0.652975 0)
(0.00600375 -0.652469 0)
(0.00528096 -0.652641 0)
(0.00433172 -0.652405 0)
(0.00326558 -0.652402 0)
(0.00247759 -0.652064 0)
(0.00179344 -0.65212 0)
(0.00107093 -0.652202 0)
(0.000315392 -0.652085 0)
(-0.000306998 -0.651692 0)
(-0.000808566 -0.651772 0)
(-0.00146607 -0.651886 0)
(-0.00216156 -0.652432 0)
(-0.00313488 -0.652481 0)
(-0.00417246 -0.652818 0)
(-0.00518051 -0.65271 0)
(-0.00617148 -0.652742 0)
(-0.00679817 -0.653055 0)
(-0.00740084 -0.653391 0)
(-0.00779018 -0.653671 0)
(-0.00745432 -0.65463 0)
(-0.00641347 -0.656275 0)
(-0.00453632 -0.658613 0)
(-0.00168305 -0.661169 0)
(0.00166068 -0.651287 0)
(0.00453253 -0.648801 0)
(0.00649114 -0.646762 0)
(0.00758516 -0.645448 0)
(0.00800059 -0.644637 0)
(0.00778999 -0.644614 0)
(0.00707862 -0.644566 0)
(0.00620376 -0.644283 0)
(0.00538385 -0.644306 0)
(0.0044392 -0.644282 0)
(0.00341807 -0.644197 0)
(0.00260011 -0.643927 0)
(0.00182202 -0.643971 0)
(0.00108622 -0.643943 0)
(0.000379852 -0.643882 0)
(-0.000289874 -0.643671 0)
(-0.00093884 -0.643787 0)
(-0.00170807 -0.643963 0)
(-0.00243038 -0.644254 0)
(-0.0033417 -0.644468 0)
(-0.00432557 -0.644567 0)
(-0.00526343 -0.644571 0)
(-0.00627507 -0.644575 0)
(-0.00711213 -0.644734 0)
(-0.00784979 -0.644829 0)
(-0.00819918 -0.644888 0)
(-0.00779268 -0.645488 0)
(-0.0066228 -0.646753 0)
(-0.0046046 -0.648777 0)
(-0.00168522 -0.651245 0)
(0.00164453 -0.641118 0)
(0.00452376 -0.638783 0)
(0.00653341 -0.636987 0)
(0.00767933 -0.63593 0)
(0.0081185 -0.635421 0)
(0.00794383 -0.635535 0)
(0.00721595 -0.635642 0)
(0.0063016 -0.635576 0)
(0.005397 -0.635603 0)
(0.00446062 -0.635649 0)
(0.00355016 -0.635587 0)
(0.00271505 -0.635464 0)
(0.001925 -0.635425 0)
(0.00112205 -0.635351 0)
(0.000345634 -0.635337 0)
(-0.000370271 -0.635281 0)
(-0.00108868 -0.635356 0)
(-0.00184125 -0.635501 0)
(-0.00263278 -0.635642 0)
(-0.00346882 -0.635841 0)
(-0.00437724 -0.635814 0)
(-0.00533041 -0.635824 0)
(-0.00624804 -0.635763 0)
(-0.00719523 -0.635764 0)
(-0.00796629 -0.635675 0)
(-0.0082256 -0.635611 0)
(-0.00780852 -0.636021 0)
(-0.00662551 -0.63703 0)
(-0.004579 -0.638793 0)
(-0.00166301 -0.641108 0)
(0.0016114 -0.630681 0)
(0.00444109 -0.628529 0)
(0.00641287 -0.626917 0)
(0.00755423 -0.626034 0)
(0.00799449 -0.625673 0)
(0.00779851 -0.625816 0)
(0.00713673 -0.62594 0)
(0.00629123 -0.626074 0)
(0.00537539 -0.626102 0)
(0.00446869 -0.62624 0)
(0.00361902 -0.626183 0)
(0.0027815 -0.626203 0)
(0.00197246 -0.626135 0)
(0.00113712 -0.626058 0)
(0.000313971 -0.626087 0)
(-0.000468779 -0.626119 0)
(-0.00122273 -0.626151 0)
(-0.00194657 -0.62627 0)
(-0.00276916 -0.6263 0)
(-0.00354412 -0.626437 0)
(-0.00435912 -0.626302 0)
(-0.00530433 -0.626349 0)
(-0.00618056 -0.626169 0)
(-0.00707137 -0.62601 0)
(-0.00779111 -0.625889 0)
(-0.00803725 -0.625818 0)
(-0.00761838 -0.626155 0)
(-0.00645583 -0.626987 0)
(-0.00446847 -0.628563 0)
(-0.00162078 -0.630695 0)
(0.00157513 -0.61998 0)
(0.00431536 -0.618009 0)
(0.00614973 -0.616499 0)
(0.00720417 -0.615737 0)
(0.00765583 -0.615368 0)
(0.00750866 -0.615454 0)
(0.00688665 -0.615569 0)
(0.00612463 -0.615834 0)
(0.00524051 -0.61597 0)
(0.00438766 -0.616102 0)
(0.0036253 -0.616131 0)
(0.00280054 -0.616245 0)
(0.00200998 -0.616244 0)
(0.00112038 -0.616236 0)
(0.00024136 -0.616246 0)
(-0.000543211 -0.616313 0)
(-0.00130978 -0.616314 0)
(-0.00203135 -0.616306 0)
(-0.00283424 -0.616223 0)
(-0.00351943 -0.616157 0)
(-0.00428062 -0.616065 0)
(-0.0051972 -0.616083 0)
(-0.00595123 -0.615857 0)
(-0.00679868 -0.615649 0)
(-0.00749816 -0.615446 0)
(-0.00764728 -0.615472 0)
(-0.00718227 -0.615868 0)
(-0.0061352 -0.61657 0)
(-0.00431054 -0.618047 0)
(-0.00157449 -0.620002 0)
(0.00156153 -0.609044 0)
(0.00421433 -0.607245 0)
(0.0058681 -0.605761 0)
(0.00666545 -0.605085 0)
(0.00708081 -0.604583 0)
(0.00706173 -0.60445 0)
(0.00656166 -0.604619 0)
(0.00583469 -0.604964 0)
(0.00506485 -0.605168 0)
(0.00431856 -0.60531 0)
(0.00353568 -0.605446 0)
(0.00273388 -0.605603 0)
(0.00189642 -0.605673 0)
(0.00109903 -0.605715 0)
(0.000268724 -0.605738 0)
(-0.000622892 -0.605771 0)
(-0.00134205 -0.605672 0)
(-0.00200065 -0.605552 0)
(-0.00271918 -0.605434 0)
(-0.00345459 -0.605222 0)
(-0.00421854 -0.605205 0)
(-0.00497959 -0.605079 0)
(-0.00580124 -0.604958 0)
(-0.00649153 -0.604666 0)
(-0.00699796 -0.604423 0)
(-0.00702417 -0.604688 0)
(-0.00656969 -0.605191 0)
(-0.00579831 -0.605798 0)
(-0.0041833 -0.607263 0)
(-0.00155266 -0.609056 0)
(0.00156952 -0.597922 0)
(0.00417466 -0.596276 0)
(0.00571017 -0.5948 0)
(0.00624254 -0.594144 0)
(0.00634784 -0.593679 0)
(0.00646801 -0.593139 0)
(0.00617382 -0.593241 0)
(0.00553812 -0.593658 0)
(0.00488027 -0.593844 0)
(0.00411732 -0.594058 0)
(0.00334744 -0.594219 0)
(0.00263022 -0.594393 0)
(0.0018733 -0.594496 0)
(0.00102848 -0.594542 0)
(0.000173753 -0.594566 0)
(-0.000577065 -0.594535 0)
(-0.0012334 -0.594442 0)
(-0.00191978 -0.594242 0)
(-0.00258226 -0.59409 0)
(-0.00334742 -0.594006 0)
(-0.00409707 -0.593847 0)
(-0.00480262 -0.593663 0)
(-0.00553475 -0.593576 0)
(-0.00615336 -0.593199 0)
(-0.00640269 -0.593077 0)
(-0.00621601 -0.593751 0)
(-0.00608317 -0.594204 0)
(-0.00562163 -0.594775 0)
(-0.00413546 -0.596258 0)
(-0.00155785 -0.59791 0)
(0.00158425 -0.586653 0)
(0.00418067 -0.58514 0)
(0.00569319 -0.583718 0)
(0.00620095 -0.583047 0)
(0.00587863 -0.582774 0)
(0.00558516 -0.582122 0)
(0.00547867 -0.581587 0)
(0.00522611 -0.582096 0)
(0.00470858 -0.582098 0)
(0.00392626 -0.582356 0)
(0.00318242 -0.582455 0)
(0.00248266 -0.582659 0)
(0.00176405 -0.582681 0)
(0.000984846 -0.58276 0)
(0.000155953 -0.582735 0)
(-0.000593151 -0.582739 0)
(-0.00112623 -0.582725 0)
(-0.0016844 -0.582463 0)
(-0.00250665 -0.5823 0)
(-0.00324623 -0.582256 0)
(-0.00386669 -0.582114 0)
(-0.00466347 -0.58183 0)
(-0.00526681 -0.581932 0)
(-0.00548081 -0.581494 0)
(-0.00544029 -0.581891 0)
(-0.00568079 -0.582875 0)
(-0.00606167 -0.583051 0)
(-0.00564288 -0.583634 0)
(-0.00415654 -0.585086 0)
(-0.00157642 -0.586616 0)
(0.00159774 -0.575267 0)
(0.00419566 -0.573866 0)
(0.00571783 -0.572562 0)
(0.00633166 -0.571925 0)
(0.00609429 -0.571738 0)
(0.00535114 -0.571407 0)
(0.00503514 -0.570464 0)
(0.00481911 -0.571063 0)
(0.00428641 -0.570495 0)
(0.00376922 -0.570846 0)
(0.00314811 -0.570782 0)
(0.002442 -0.5712 0)
(0.00173569 -0.571033 0)
(0.00103908 -0.571202 0)
(0.000429774 -0.571119 0)
(-0.000181979 -0.57152 0)
(-0.00101206 -0.571581 0)
(-0.0018434 -0.571313 0)
(-0.0025182 -0.570922 0)
(-0.00319702 -0.57091 0)
(-0.00388916 -0.570721 0)
(-0.00437739 -0.570365 0)
(-0.00479417 -0.570895 0)
(-0.00504298 -0.570583 0)
(-0.00529156 -0.571188 0)
(-0.00595159 -0.571923 0)
(-0.00631634 -0.571888 0)
(-0.00573178 -0.572454 0)
(-0.00419811 -0.573794 0)
(-0.00159714 -0.575214 0)
(0.00159767 -0.563782 0)
(0.00418261 -0.562464 0)
(0.00569956 -0.561321 0)
(0.00638742 -0.56078 0)
(0.00637494 -0.560653 0)
(0.00580588 -0.56064 0)
(0.00524155 -0.560034 0)
(0.00465155 -0.560321 0)
(0.00410189 -0.559878 0)
(0.00365773 -0.560093 0)
(0.00307654 -0.560078 0)
(0.00239703 -0.560376 0)
(0.00167871 -0.560314 0)
(0.00110331 -0.560483 0)
(0.000564509 -0.560407 0)
(-9.04599e-05 -0.560811 0)
(-0.00096266 -0.560954 0)
(-0.00181823 -0.560749 0)
(-0.00245091 -0.56037 0)
(-0.00307647 -0.56035 0)
(-0.00373996 -0.560128 0)
(-0.00417968 -0.559885 0)
(-0.00467065 -0.560251 0)
(-0.00523658 -0.560205 0)
(-0.00576874 -0.560604 0)
(-0.00634741 -0.560872 0)
(-0.00645849 -0.560748 0)
(-0.0057581 -0.561228 0)
(-0.00420618 -0.562394 0)
(-0.00160321 -0.563729 0)
(0.00154927 -0.55224 0)
(0.00408537 -0.55095 0)
(0.00559906 -0.549974 0)
(0.00630411 -0.549542 0)
(0.00638515 -0.549488 0)
(0.00598611 -0.549634 0)
(0.0053984 -0.54955 0)
(0.00473706 -0.549615 0)
(0.00413214 -0.5495 0)
(0.00358558 -0.549636 0)
(0.00295925 -0.54968 0)
(0.00230585 -0.549813 0)
(0.00164368 -0.549853 0)
(0.00105247 -0.54994 0)
(0.000471672 -0.549962 0)
(-0.000201951 -0.550118 0)
(-0.000979817 -0.550184 0)
(-0.0017214 -0.550104 0)
(-0.00233629 -0.549956 0)
(-0.0029328 -0.549891 0)
(-0.00354046 -0.549768 0)
(-0.00410484 -0.549624 0)
(-0.00471026 -0.549656 0)
(-0.00533819 -0.54962 0)
(-0.0059408 -0.549718 0)
(-0.00641537 -0.549704 0)
(-0.00640035 -0.549524 0)
(-0.00567491 -0.549912 0)
(-0.00411853 -0.550901 0)
(-0.00155756 -0.552201 0)
(0.00146195 -0.540636 0)
(0.00390824 -0.539361 0)
(0.00542108 -0.538514 0)
(0.00612528 -0.53817 0)
(0.00624515 -0.538156 0)
(0.00591172 -0.538357 0)
(0.00535825 -0.538479 0)
(0.00472593 -0.53855 0)
(0.00407928 -0.538637 0)
(0.00348678 -0.538767 0)
(0.00288339 -0.538843 0)
(0.00224531 -0.538934 0)
(0.00161528 -0.538981 0)
(0.00101464 -0.539032 0)
(0.000437096 -0.539071 0)
(-0.000203025 -0.539128 0)
(-0.000970102 -0.539135 0)
(-0.00171712 -0.539105 0)
(-0.00231926 -0.539024 0)
(-0.00285418 -0.538949 0)
(-0.00340888 -0.538868 0)
(-0.00398963 -0.538754 0)
(-0.00463441 -0.538597 0)
(-0.0052731 -0.53849 0)
(-0.00586451 -0.538443 0)
(-0.00627815 -0.538331 0)
(-0.00622541 -0.538153 0)
(-0.00549888 -0.53849 0)
(-0.00394441 -0.539341 0)
(-0.00147218 -0.540619 0)
(0.00138 -0.528917 0)
(0.00370844 -0.527702 0)
(0.0051563 -0.526934 0)
(0.00585452 -0.52663 0)
(0.00599999 -0.526636 0)
(0.00569767 -0.526849 0)
(0.00519375 -0.527052 0)
(0.00460187 -0.527149 0)
(0.00397539 -0.527333 0)
(0.00339209 -0.527461 0)
(0.00279298 -0.527584 0)
(0.00218301 -0.527658 0)
(0.00157006 -0.527705 0)
(0.000977992 -0.527701 0)
(0.000396603 -0.527815 0)
(-0.000266322 -0.527875 0)
(-0.000960629 -0.527837 0)
(-0.00162077 -0.527799 0)
(-0.00222571 -0.52767 0)
(-0.00277149 -0.527534 0)
(-0.00332269 -0.527471 0)
(-0.00386983 -0.527324 0)
(-0.00448387 -0.52715 0)
(-0.00513146 -0.527014 0)
(-0.00565808 -0.526845 0)
(-0.00600554 -0.526687 0)
(-0.0059345 -0.526595 0)
(-0.00522401 -0.526953 0)
(-0.00374043 -0.527714 0)
(-0.0013902 -0.528926 0)
(0.00132518 -0.517071 0)
(0.00352498 -0.515959 0)
(0.0048176 -0.515223 0)
(0.00544382 -0.51493 0)
(0.00560471 -0.514848 0)
(0.00535588 -0.515045 0)
(0.0049274 -0.51526 0)
(0.00444953 -0.51541 0)
(0.00387802 -0.515648 0)
(0.00327332 -0.515757 0)
(0.00271469 -0.515908 0)
(0.00213021 -0.515994 0)
(0.00154353 -0.516051 0)
(0.000912435 -0.516056 0)
(0.000273666 -0.516139 0)
(-0.000317054 -0.51615 0)
(-0.000872546 -0.516091 0)
(-0.00145074 -0.516093 0)
(-0.00207146 -0.515945 0)
(-0.00268496 -0.515805 0)
(-0.00323275 -0.515672 0)
(-0.00377147 -0.515513 0)
(-0.00435138 -0.515371 0)
(-0.0048894 -0.515222 0)
(-0.00535799 -0.515014 0)
(-0.00565255 -0.514725 0)
(-0.00552686 -0.514863 0)
(-0.00486961 -0.515289 0)
(-0.00354646 -0.516004 0)
(-0.00133187 -0.517107 0)
(0.00129126 -0.505135 0)
(0.00338521 -0.50413 0)
(0.00451633 -0.50339 0)
(0.00492924 -0.503111 0)
(0.00507928 -0.502807 0)
(0.00500024 -0.502847 0)
(0.00467772 -0.503135 0)
(0.00422313 -0.503333 0)
(0.00371771 -0.503587 0)
(0.00319203 -0.503708 0)
(0.00261594 -0.503861 0)
(0.00205343 -0.503982 0)
(0.00146633 -0.504075 0)
(0.00088085 -0.504107 0)
(0.000300716 -0.504154 0)
(-0.000296167 -0.504082 0)
(-0.000891179 -0.504036 0)
(-0.00136433 -0.50397 0)
(-0.00191503 -0.503926 0)
(-0.00256943 -0.503798 0)
(-0.00311771 -0.503679 0)
(-0.00363587 -0.50349 0)
(-0.0041584 -0.503343 0)
(-0.00464952 -0.5032 0)
(-0.00499999 -0.502961 0)
(-0.00523563 -0.502683 0)
(-0.00510347 -0.503065 0)
(-0.00452976 -0.503495 0)
(-0.00338532 -0.504198 0)
(-0.0012909 -0.505193 0)
(0.00126975 -0.493155 0)
(0.00330066 -0.49224 0)
(0.00435399 -0.491492 0)
(0.00458374 -0.491201 0)
(0.0045606 -0.490806 0)
(0.00450582 -0.490404 0)
(0.0044023 -0.490779 0)
(0.00401491 -0.49087 0)
(0.00350175 -0.49126 0)
(0.00306482 -0.491367 0)
(0.00250496 -0.491531 0)
(0.0019448 -0.4917 0)
(0.00140511 -0.491851 0)
(0.000813821 -0.491917 0)
(0.000317409 -0.491969 0)
(-0.000165844 -0.491893 0)
(-0.000795882 -0.491808 0)
(-0.00133342 -0.491696 0)
(-0.00186694 -0.491709 0)
(-0.0025126 -0.491592 0)
(-0.0030065 -0.491533 0)
(-0.00342589 -0.491334 0)
(-0.00400452 -0.491078 0)
(-0.00436656 -0.490962 0)
(-0.00471559 -0.490742 0)
(-0.00481073 -0.490651 0)
(-0.00459398 -0.491235 0)
(-0.00429356 -0.491599 0)
(-0.00327119 -0.492312 0)
(-0.00126109 -0.49322 0)
(0.00125625 -0.481167 0)
(0.00325923 -0.480333 0)
(0.00431838 -0.479609 0)
(0.00459557 -0.47929 0)
(0.00445703 -0.479092 0)
(0.00440173 -0.478463 0)
(0.00413969 -0.478992 0)
(0.00375049 -0.478695 0)
(0.00329083 -0.479342 0)
(0.00268881 -0.479196 0)
(0.00223271 -0.479295 0)
(0.00173283 -0.479455 0)
(0.00121065 -0.479588 0)
(0.000781344 -0.479581 0)
(0.000230663 -0.479805 0)
(-0.000300831 -0.479476 0)
(-0.000606048 -0.479488 0)
(-0.00112586 -0.479617 0)
(-0.00176117 -0.479511 0)
(-0.0022285 -0.479409 0)
(-0.00280189 -0.479541 0)
(-0.00338102 -0.479277 0)
(-0.00372755 -0.47897 0)
(-0.00425543 -0.479025 0)
(-0.00459977 -0.478638 0)
(-0.00443688 -0.47877 0)
(-0.00439326 -0.479314 0)
(-0.00420695 -0.479677 0)
(-0.00321032 -0.480391 0)
(-0.00124238 -0.481224 0)
(0.00124613 -0.469206 0)
(0.00323241 -0.468452 0)
(0.00432071 -0.467799 0)
(0.00474722 -0.467518 0)
(0.00464949 -0.467594 0)
(0.00443186 -0.467336 0)
(0.00407887 -0.467709 0)
(0.00362241 -0.467431 0)
(0.00311516 -0.4679 0)
(0.00252558 -0.467738 0)
(0.00204756 -0.467794 0)
(0.00161154 -0.467857 0)
(0.00116723 -0.467938 0)
(0.000691758 -0.467867 0)
(0.000171128 -0.468136 0)
(-0.00031116 -0.46777 0)
(-0.000651701 -0.467801 0)
(-0.00106929 -0.468031 0)
(-0.00156932 -0.467873 0)
(-0.00206124 -0.467864 0)
(-0.00266897 -0.467965 0)
(-0.00328738 -0.467718 0)
(-0.003699 -0.467523 0)
(-0.00413026 -0.467574 0)
(-0.00444778 -0.467204 0)
(-0.00455555 -0.467294 0)
(-0.00457829 -0.467464 0)
(-0.00422208 -0.467818 0)
(-0.00318488 -0.468487 0)
(-0.00123192 -0.469247 0)
(0.0012311 -0.457298 0)
(0.00318766 -0.456615 0)
(0.00426922 -0.456062 0)
(0.00474019 -0.455873 0)
(0.00472929 -0.45608 0)
(0.00442687 -0.456167 0)
(0.00401664 -0.456365 0)
(0.00353034 -0.456382 0)
(0.00302256 -0.456569 0)
(0.00252311 -0.456552 0)
(0.00200969 -0.456615 0)
(0.00157508 -0.456598 0)
(0.00115397 -0.456676 0)
(0.000664242 -0.456664 0)
(0.000194887 -0.456766 0)
(-0.00025557 -0.456608 0)
(-0.000671735 -0.456588 0)
(-0.00111725 -0.456684 0)
(-0.00156262 -0.456568 0)
(-0.00203167 -0.456622 0)
(-0.00257839 -0.456569 0)
(-0.00312913 -0.456427 0)
(-0.00360946 -0.456271 0)
(-0.0040141 -0.45616 0)
(-0.00439372 -0.456005 0)
(-0.00468705 -0.455904 0)
(-0.00467603 -0.455797 0)
(-0.0042152 -0.456055 0)
(-0.0031556 -0.456629 0)
(-0.00122003 -0.457321 0)
(0.00120351 -0.445449 0)
(0.0031098 -0.444818 0)
(0.00415607 -0.444368 0)
(0.00460588 -0.444252 0)
(0.0046218 -0.444467 0)
(0.00432627 -0.444692 0)
(0.00387565 -0.444885 0)
(0.00341318 -0.444993 0)
(0.0029471 -0.445123 0)
(0.00245596 -0.445186 0)
(0.00198752 -0.445254 0)
(0.00155397 -0.445227 0)
(0.00110648 -0.44531 0)
(0.000646142 -0.445333 0)
(0.000198131 -0.445381 0)
(-0.000229811 -0.445298 0)
(-0.00064793 -0.445279 0)
(-0.00110335 -0.445319 0)
(-0.00152259 -0.445209 0)
(-0.00196509 -0.445216 0)
(-0.00247628 -0.445113 0)
(-0.00299561 -0.445001 0)
(-0.00349539 -0.444831 0)
(-0.00391129 -0.444626 0)
(-0.00430497 -0.444553 0)
(-0.00460949 -0.444369 0)
(-0.00458544 -0.444203 0)
(-0.00413144 -0.444358 0)
(-0.00309295 -0.444824 0)
(-0.00119665 -0.445459 0)
(0.00114244 -0.433683 0)
(0.00297449 -0.43307 0)
(0.00399658 -0.432704 0)
(0.00442488 -0.432634 0)
(0.00441864 -0.432821 0)
(0.00412841 -0.433061 0)
(0.00372775 -0.433236 0)
(0.00328674 -0.433405 0)
(0.00282269 -0.433514 0)
(0.00237304 -0.433628 0)
(0.00196857 -0.433712 0)
(0.00152657 -0.433715 0)
(0.00105442 -0.433777 0)
(0.000628693 -0.433819 0)
(0.000218178 -0.433814 0)
(-0.000205861 -0.433815 0)
(-0.000645945 -0.433773 0)
(-0.00108223 -0.43378 0)
(-0.00148544 -0.433704 0)
(-0.00190386 -0.433647 0)
(-0.00236648 -0.433543 0)
(-0.00283428 -0.433443 0)
(-0.00328294 -0.433284 0)
(-0.00378065 -0.433124 0)
(-0.00420678 -0.432955 0)
(-0.0044437 -0.432764 0)
(-0.00442627 -0.432614 0)
(-0.00398967 -0.432695 0)
(-0.00297574 -0.43307 0)
(-0.0011451 -0.433677 0)
(0.0010702 -0.421984 0)
(0.00280783 -0.421385 0)
(0.00378262 -0.421074 0)
(0.00418518 -0.421021 0)
(0.00416686 -0.421139 0)
(0.0039076 -0.421358 0)
(0.003536 -0.421518 0)
(0.00312388 -0.421685 0)
(0.00269214 -0.421776 0)
(0.00223986 -0.421887 0)
(0.00191715 -0.421975 0)
(0.00151276 -0.422144 0)
(0.00101083 -0.42216 0)
(0.000627841 -0.422175 0)
(0.000207662 -0.422143 0)
(-0.000203817 -0.422183 0)
(-0.000589992 -0.422166 0)
(-0.00102876 -0.422168 0)
(-0.00142326 -0.42212 0)
(-0.0018606 -0.422041 0)
(-0.0022992 -0.421922 0)
(-0.00270433 -0.421866 0)
(-0.0031939 -0.421736 0)
(-0.00360545 -0.42159 0)
(-0.00391762 -0.42133 0)
(-0.00418747 -0.421131 0)
(-0.00418648 -0.421033 0)
(-0.00378341 -0.421064 0)
(-0.00281511 -0.421378 0)
(-0.00107536 -0.421969 0)
(0.00101306 -0.41032 0)
(0.00264584 -0.409763 0)
(0.00352054 -0.40947 0)
(0.00389276 -0.409418 0)
(0.00389019 -0.409436 0)
(0.00365117 -0.409605 0)
(0.00338072 -0.409782 0)