/*--------------------------------*- C++ -*----------------------------------*\
| =========                 |                                                 |
| \\      /  F ield         | OpenFOAM: The Open Source CFD Toolbox           |
|  \\    /   O peration     | Version:  2312                                  |
|   \\  /    A nd           | Website:  www.openfoam.com                      |
|    \\/     M anipulation  |                                                 |
\*---------------------------------------------------------------------------*/
FoamFile
{
    version     2.0;
    format      ascii;
    arch        "LSB;label=32;scalar=64";
    class       volScalarField;
    location    "50";
    object      div(phi);
}
// * * * * * * * * * * * * * * * * * * * * * * * * * * * * * * * * * * * * * //

dimensions      [0 0 -1 0 0 0 0];

internalField   nonuniform List<scalar> 
10720
(
0.000934498
-0.000155032
0.000300451
-0.000208264
0.000203722
0.000351181
0.000614589
0.000784046
0.000497741
0.000278957
0.000146535
6.29399e-05
4.97078e-05
6.25582e-05
0.00010745
0.00013459
0.000164394
0.000183646
0.000217947
0.000256761
0.000315566
0.000384212
0.000439458
0.000799453
0.00198302
0.00264928
0.00108053
-0.00268708
-0.00582229
0.00962567
0.00143272
0.00192388
-0.00846223
0.0592564
-0.0347428
-0.00329819
0.00991601
0.0145473
0.192675
-1.02487e-05
0.00056979
0.000540152
0.00216712
0.00347968
0.00478755
0.00231772
0.00108766
0.000677561
0.000528093
0.000556237
0.000584096
0.000602712
0.00060199
0.000587818
0.000587846
0.000586233
0.000618927
0.000617808
0.000688053
0.000617533
0.000695274
0.000328157
0.000131528
5.98335e-05
0.000235679
0.000367268
0.000564405
0.000854051
-2.55934e-05
0.00046344
0.000311812
0.000494268
0.000555546
0.000220573
-0.000788707
0.00100719
-0.00791124
0.0116278
0.000788662
0.000155646
0.00036561
-9.98582e-05
0.000463765
0.000550043
0.000876745
0.000603287
0.000447452
0.000222968
0.0001018
3.84522e-05
6.53378e-05
0.000102863
0.000171683
0.00020204
0.000244128
0.000254943
0.00028755
0.000293965
0.000318005
0.000304176
0.000295156
0.000295021
0.00053148
0.000885164
0.000960827
0.000165657
-0.00114014
0.00278794
0.000522517
0.00102416
-0.00254443
0.0145634
-0.00665652
0.00129982
0.00620097
0.013783
0.101155
0.000499863
0.00036125
0.000981326
0.00175737
0.00303746
0.00218899
0.00153275
0.000820592
0.0005551
0.000481226
0.000515637
0.00054867
0.000565799
0.000578548
0.000573321
0.000600124
0.000610086
0.000664353
0.000675407
0.000737118
0.000689653
0.000697452
0.000380324
0.000186231
1.93256e-05
0.000192677
0.000304787
0.000678619
0.000965161
0.0003173
0.000707029
0.000526596
0.000731441
0.00066143
0.000639487
-0.00038234
0.000561285
-0.00811934
0.0158593
0.000390919
0.000637494
3.0573e-05
0.000544779
0.000647015
0.000805832
0.0008106
0.000668064
0.000312689
0.000148232
3.75629e-05
9.53893e-06
5.32747e-06
4.29403e-05
7.06032e-05
9.40061e-05
0.000110011
0.000116053
0.000136349
0.000145765
0.000180301
0.000185902
0.000200964
0.000267141
0.000533951
0.000461944
2.27595e-05
-0.000957782
-0.00185797
0.00310118
0.000664821
0.000529535
-0.00148264
0.014278
-0.00992177
-0.0021745
0.00240669
0.0010121
0.0577469
0.000677761
0.000656992
0.00160887
0.00186234
0.00214946
0.00205512
0.00089854
0.000603311
0.000424375
0.000433594
0.000472263
0.000513862
0.000537204
0.000528921
0.000526091
0.000505979
0.000514321
0.000507782
0.000532497
0.000534062
0.00054081
0.000516025
0.000343239
0.000182168
0.000100155
0.00023077
0.000239276
0.000417945
0.000491081
-8.56637e-05
0.000305973
0.000163602
0.000314896
0.000478383
-9.32428e-05
-0.000945615
0.00120954
-0.00438742
0.00451989
0.00117568
0.000328079
0.000541849
0.000699766
0.000635894
0.00111437
0.000779308
0.000378093
0.00025999
8.82867e-05
-1.01157e-05
-6.20519e-07
2.81968e-05
0.00010722
0.000146191
0.000205871
0.000224129
0.000262725
0.000272125
0.000302451
0.000306601
0.000313634
0.000282883
0.000287591
0.00036398
0.000531962
0.000590844
0.000337745
-0.000259135
0.00125587
0.000344477
0.000555055
-0.000933734
0.00521167
-0.00141536
0.00128568
0.00348712
0.0089878
0.0567514
0.000584242
0.00144979
0.00108848
0.00227147
0.00196053
0.000945398
0.000808007
0.000509234
0.000379876
0.000403621
0.000440228
0.000487198
0.000508969
0.000513155
0.000523947
0.000524624
0.000558223
0.000569055
0.000617849
0.00061703
0.000637749
0.000564963
0.000421813
0.000214483
0.000100972
0.000115852
0.000207724
0.000498799
0.000727829
0.00034007
0.000654192
0.000522046
0.000704644
0.000704551
0.000584164
-0.000384787
0.000719942
-0.00625228
0.0133413
0.000988512
0.000630442
0.000558706
0.000642416
0.00123484
0.000744004
0.000593793
0.000486572
0.000137666
-3.37032e-06
-4.38716e-05
-5.2707e-05
1.16792e-06
3.17046e-05
6.82733e-05
8.03455e-05
9.30142e-05
9.67184e-05
0.000101035
0.000113847
0.000126796
0.00014908
0.000149989
0.000227903
0.00040817
0.000385078
-9.4807e-06
-0.000848871
-0.00141136
0.00227437
0.000516722
0.000352037
-0.000832546
0.0104978
-0.00684734
-0.00194478
0.0016063
-0.000694588
0.0318427
0.000882557
0.000874163
0.00189061
0.00129441
0.00126877
0.00119232
0.000538805
0.000336922
0.000311009
0.000331668
0.000398276
0.000448308
0.000467834
0.000479756
0.000461031
0.000464185
0.000444138
0.000459699
0.000447057
0.000471367
0.000446235
0.000450566
0.000322842
0.000264144
0.00013836
0.000217707
0.000171711
0.000294895
0.000138367
-4.68883e-05
0.000150595
7.61433e-05
0.000151267
0.000406976
-0.000304238
-0.00113768
0.00147331
-0.00218126
0.00118906
0.00102627
0.000386984
0.000809446
0.00102076
0.000717383
0.00099757
0.000647509
0.000152559
0.000110764
-4.83784e-05
-6.8268e-05
-4.34273e-05
3.9131e-05
8.63929e-05
0.00015425
0.000176997
0.000226232
0.000238567
0.000272323
0.000276021
0.000299412
0.00028718
0.000283178
0.000274496
0.000355422
0.000477064
0.000575556
0.000357894
-4.59111e-05
0.000847392
0.000285033
0.000336769
-0.000577404
0.00352121
-0.000473162
0.00127602
0.00288544
0.00787678
0.0388039
0.00082857
0.00117061
0.000772128
0.00160801
0.00120593
0.000442264
0.000513305
0.000314839
0.000296507
0.000315226
0.000386289
0.000425658
0.0004532
0.000462469
0.000460201
0.000471794
0.000476489
0.000505849
0.000517715
0.000543071
0.000535973
0.000501712
0.000407275
0.000268367
0.000163424
9.58093e-05
0.000144513
0.00030452
0.000507733
0.000286948
0.000500895
0.000464721
0.00059258
0.000656864
0.000452607
-0.000298782
0.000815606
-0.00377521
0.0100835
0.000562071
0.000714792
0.000599949
0.000713095
0.00120618
0.000576753
0.000363194
0.000362266
-2.19928e-05
-8.13542e-05
-0.000109058
-4.30953e-05
-1.77246e-06
5.28698e-05
6.76654e-05
8.64423e-05
8.72915e-05
9.05755e-05
8.85492e-05
8.81894e-05
9.61342e-05
9.86489e-05
9.81985e-05
0.000143616
0.000251719
0.000270231
-0.000103608
-0.000794259
-0.00153089
0.00203138
0.000404043
0.000226445
-0.000692522
0.00932016
-0.00604173
-0.00174636
0.00133846
-0.000844268
0.0174708
0.000533494
0.000534063
0.00140257
0.000716928
0.000710969
0.000840474
0.000283905
0.000240005
0.000206411
0.000266033
0.000328246
0.000381721
0.000414083
0.000413143
0.000417367
0.000395808
0.000401436
0.000380511
0.000398852
0.000373533
0.000402268
0.000343411
0.000353462
0.000227066
0.000252533
0.00013977
0.000208472
0.000133747
1.42374e-05
-0.000177067
8.68733e-05
-8.07019e-06
5.17656e-05
0.000312949
-0.000484734
-0.00113928
0.00155823
-0.000631959
-0.00132633
0.000623246
0.000470159
0.000606011
0.00101095
0.000427544
0.000772689
0.00049234
8.7811e-06
6.6339e-06
-8.62033e-05
-9.21495e-05
-1.51326e-05
3.59584e-05
0.000107457
0.000131901
0.000180848
0.000192689
0.00023713
0.000241167
0.000268203
0.000264149
0.000273681
0.000251828
0.000263023
0.000304082
0.000413998
0.00050299
0.000354917
4.2807e-05
0.000716869
0.000256584
0.00018386
-0.000472389
0.00295414
-0.000320203
0.00119331
0.00264886
0.00723913
0.028243
0.000298254
0.00107436
0.000310553
0.0012356
0.000848602
0.000221456
0.00036246
0.000259089
0.000211238
0.000272297
0.000316855
0.00037054
0.000392564
0.000402818
0.000400248
0.000401493
0.00040511
0.000420229
0.00043079
0.000451987
0.000446207
0.000437972
0.000377775
0.000301581
0.000210144
0.000130261
0.000121622
0.000202088
0.000343579
0.000216042
0.000322689
0.000355984
0.00048576
0.000581032
0.000330239
-0.000207037
0.000894233
-0.00186348
0.00671949
0.000618345
0.000412627
0.000762364
0.000457015
0.000991518
0.000380617
0.000257509
0.00028018
-5.19466e-05
-0.0001221
-6.87106e-05
-3.15332e-05
4.03421e-05
5.86188e-05
8.92338e-05
8.37372e-05
9.3725e-05
8.35882e-05
8.40894e-05
7.13465e-05
7.42758e-05
6.04756e-05
6.01258e-05
6.22736e-05
0.000146538
0.000104739
-8.6278e-05
-0.000800326
-0.00130448
0.00170246
0.000337408
0.000186169
-0.000828748
0.00918472
-0.0056653
-0.00207962
0.00147017
-0.000583585
0.00985423
0.000868493
0.000212997
0.00137015
0.000523847
0.000549361
0.000652122
0.000237207
0.000148013
0.000168072
0.000197184
0.000267315
0.000315414
0.000342431
0.000356093
0.000346491
0.000345431
0.000327081
0.000331265
0.000312353
0.000326736
0.00030027
0.000318853
0.000266726
0.000273829
0.000199848
0.000208658
0.000137951
0.000146813
-9.8062e-05
-0.000134321
-0.000112179
-8.42707e-06
-3.42284e-05
0.000256556
-0.000578004
-0.00113413
0.0015718
-9.43017e-05
-0.00204381
0.000694872
0.000784369
0.000486388
0.000852653
0.000260817
0.000666019
0.000413923
-7.71497e-05
-1.09451e-05
-8.37466e-05
-4.36096e-05
5.40152e-06
7.03319e-05
0.000100276
0.000140043
0.000152712
0.000183892
0.00019911
0.000227329
0.000233076
0.000241527
0.000239439
0.000229979
0.000234891
0.000266681
0.000347912
0.000417539
0.000309233
0.000141134
0.000540968
0.000194776
3.60615e-05
-0.000421324
0.00303341
-0.000335964
0.00110509
0.00272342
0.00707323
0.0226342
0.000136318
0.00112821
0.000191938
0.00100532
0.000644792
0.000115485
0.000291778
0.000173071
0.000181723
0.000200938
0.000259427
0.000293659
0.000323874
0.000329663
0.000333128
0.000325641
0.000333735
0.000331895
0.000354363
0.000354812
0.000378399
0.000359578
0.000358296
0.000292578
0.000261679
0.000163264
0.000172269
0.000158691
0.000276221
0.000148958
0.000178375
0.000213325
0.000352313
0.000499931
0.000232818
-0.000135054
0.000946803
-0.000765798
0.00421861
0.000633012
0.000308389
0.000636272
0.000355814
0.000860063
0.000270137
0.000141136
0.000264345
-8.72985e-05
-5.89202e-05
-4.67461e-05
2.55435e-05
4.74884e-05
8.84487e-05
8.12594e-05
9.71614e-05
7.81662e-05
8.89134e-05
6.34708e-05
6.99208e-05
4.18505e-05
5.03657e-05
1.38456e-05
4.01772e-05
4.67991e-05
6.91464e-05
-0.000107223
-0.000607828
-0.000967652
0.00117874
0.000341262
0.000155772
-0.00077728
0.00933661
-0.00586122
-0.00257512
0.00155696
-0.000210543
0.00859365
0.000715822
0.000100139
0.00102463
0.000306675
0.000378334
0.000539738
0.000130732
0.000124778
0.000103775
0.000150082
0.000185557
0.000234997
0.000263177
0.000277628
0.000281268
0.000276398
0.000271181
0.000263567
0.000260771
0.00025301
0.000255213
0.000242164
0.000246105
0.000214684
0.000220816
0.000165795
0.000184403
0.000103553
-5.48144e-05
-0.000184331
-0.000119578
-0.000163602
-2.26978e-05
0.000187277
-0.000617565
-0.00109545
0.0015484
-4.65451e-05
-0.00227117
0.000552184
0.000618768
0.000391791
0.000708247
0.000143826
0.000560491
0.000351805
-9.15423e-05
2.51729e-05
-2.63698e-05
-5.1651e-06
3.85744e-05
7.91091e-05
0.000104073
0.00012559
0.000135528
0.000156538
0.000166666
0.000196294
0.000198493
0.000211047
0.000203594
0.000205273
0.000204477
0.000235444
0.000293559
0.000339861
0.000262788
0.000183411
0.000369647
0.000118553
-9.89956e-05
-0.000386253
0.00297312
-0.000382394
0.000989974
0.00315128
0.00798103
0.0235244
0.000164516
0.000801648
7.78649e-05
0.000801164
0.000474469
6.32732e-05
0.000226232
0.000160267
0.000121796
0.00014623
0.000174497
0.00021054
0.000236907
0.000253753
0.000255682
0.00026
0.000256219
0.000268272
0.000269316
0.000294599
0.000294202
0.000319984
0.000303124
0.000305487
0.000262725
0.000233223
0.000206522
0.000211024
0.000232261
0.000154297
8.18131e-05
9.70734e-05
0.000203172
0.000375932
0.000157266
-7.72119e-05
0.000963962
-0.000229537
0.00240782
0.000507233
0.000173287
0.000499416
0.000237845
0.000753898
0.000199006
0.000152972
0.000266211
-9.07649e-06
-4.07532e-05
6.20323e-07
2.49904e-05
6.92533e-05
7.35021e-05
8.94431e-05
7.5091e-05
8.08146e-05
6.11666e-05
6.55452e-05
3.81386e-05
4.2056e-05
1.43729e-05
1.65102e-05
1.48807e-06
3.65523e-05
3.36725e-05
-4.71868e-05
-0.000379253
-0.000605472
0.000836992
0.000376265
0.00025875
-0.000540236
0.00900713
-0.00578264
-0.00359003
0.00162569
0.000186658
0.00836511
0.000564404
0.000172432
0.000866574
0.000204113
0.000336426
0.000444772
0.000127385
6.95512e-05
7.48593e-05
6.71756e-05
0.000105672
0.000142264
0.000178207
0.000200631
0.000215789
0.000215807
0.000219443
0.000211727
0.000214718
0.000206027
0.000209028
0.000201266
0.000201533
0.000189719
0.00018829
0.000167362
0.000173743
0.000131451
-1.31738e-05
-0.000111662
-0.000181997
-0.000153423
-0.000148056
0.000172823
-0.000626639
-0.000988957
0.00144466
-0.000198195
-0.00180192
0.000387242
0.000494077
0.000255519
0.00058922
9.28668e-05
0.000528285
0.000327472
-5.32864e-05
3.21961e-05
-9.04584e-06
-5.54408e-06
4.5762e-05
6.34622e-05
9.92675e-05
9.60976e-05
0.000121027
0.000115082
0.000143372
0.000144839
0.000175027
0.000165776
0.000180947
0.000168647
0.000186073
0.000200576
0.000254873
0.000276924
0.000228036
0.000188566
0.000265082
4.33631e-05
-0.000202491
-0.000344041
0.00255143
-0.000295272
0.000929098
0.00318952
0.00846673
0.0220054
0.000255681
0.00066316
6.31242e-05
0.000695091
0.000386677
2.93338e-05
0.000191091
0.000100923
7.1516e-05
7.18963e-05
9.35862e-05
0.000127334
0.000158024
0.000183061
0.00019226
0.000198744
0.000202193
0.000205588
0.000218994
0.000226902
0.000251265
0.000258853
0.000282961
0.000277328
0.000286245
0.000256169
0.000270919
0.000248092
0.00026462
0.000167455
8.92988e-05
2.09703e-05
8.64986e-05
0.000229696
7.15389e-05
-3.76185e-05
0.000920591
-5.68099e-05
0.00118995
0.000388162
6.94684e-05
0.000387488
0.000199221
0.000668414
0.000154442
0.000132696
0.000243435
-4.11857e-05
-4.33884e-05
-2.19617e-05
1.41671e-05
4.80036e-05
6.22515e-05
6.83047e-05
6.46992e-05
5.80669e-05
5.16846e-05
4.10841e-05
3.30461e-05
1.76994e-05
1.43297e-05
-2.31063e-06
8.91186e-06
1.85663e-05
4.82797e-05
7.55333e-06
-0.000186742
-0.000247319
0.000594363
0.000415671
0.000446277
-7.38215e-05
0.00868208
-0.0050044
-0.00399427
0.000988934
-0.000306625
0.0029228
0.000424178
0.000150417
0.000737354
0.000152297
0.000266325
0.000374451
6.54787e-05
4.33983e-05
7.46625e-08
3.96102e-06
2.53723e-05
6.9066e-05
0.000111215
0.000143408
0.000161769
0.00017426
0.000174167
0.0001821
0.000174805
0.00018259
0.000171916
0.000179368
0.000165636
0.00017166
0.00015798
0.000164245
0.000160388
0.000153071
3.83034e-05
-3.79795e-05
-0.000126709
-0.000201574
-0.000136137
2.82763e-05
-0.000570915
-0.000897465
0.00135328
-0.000373967
-0.00144701
0.000273589
0.00037667
0.000208073
0.000489166
4.25214e-05
0.000472655
0.000283009
-9.78559e-05
1.85319e-05
-4.83843e-05
-1.68906e-05
6.74492e-06
5.53997e-05
6.03053e-05
8.78165e-05
7.79651e-05
0.000102094
9.45976e-05
0.00012498
0.000126475
0.000149757
0.000138853
0.000156336
0.000152201
0.00018496
0.000214529
0.00023659
0.000196797
0.000187673
0.000180853
1.21779e-05
-0.000259296
-0.000222609
0.0019313
-0.000122614
0.000852274
0.00263366
0.00706717
0.014582
0.000181434
0.000537136
2.90885e-05
0.000586726
0.000301465
1.94515e-05
0.000142984
5.72305e-05
1.5791e-05
1.15293e-05
3.88079e-05
7.01246e-05
0.000110908
0.000132698
0.000150761
0.000155361
0.000162375
0.000165874
0.000174033
0.000188471
0.000201211
0.000227271
0.000240036
0.000269968
0.000268995
0.000289393
0.000284084
0.000303808
0.000271572
0.000232723
0.000114766
4.02804e-05
1.15289e-05
0.000108332
-2.83541e-05
-3.59886e-05
0.000832829
-8.15735e-05
0.000363505
0.000237044
1.02384e-05
0.00031019
0.000135653
0.000597305
0.000134706
9.74737e-05
0.000233247
-7.00281e-05
-7.62506e-05
-6.40185e-05
-5.90769e-06
1.65066e-05
4.95301e-05
4.39253e-05
5.44409e-05
3.94803e-05
4.14235e-05
2.88255e-05
2.40351e-05
1.25139e-05
7.70603e-06
2.17239e-06
6.70956e-06
2.68992e-05
4.97844e-05
5.1651e-05
-5.58056e-05
-2.39265e-05
0.000419275
0.000490665
0.000489187
0.000679002
0.0069848
-0.00369234
-0.00410757
0.000322778
-0.000487577
-0.000131733
0.000326288
0.00011634
0.000621705
0.00012123
0.00024912
0.000313579
4.84195e-05
-2.44242e-05
-4.68289e-05
-4.94757e-05
-1.78529e-05
3.617e-05
7.687e-05
0.000111075
0.000131266
0.000142202
0.000151812
0.00015176
0.000160553
0.000154258
0.000162316
0.000151704
0.000156524
0.000143962
0.000149847
0.000142915
0.000158199
0.000144352
8.59071e-05
1.87007e-05
-5.77757e-05
-0.000148044
-0.000183647
-1.77242e-05
-0.00066229
-0.000716989
0.00118686
-0.000479283
-0.000939527
0.000162801
0.000316508
0.000131882
0.000415714
3.99888e-05
0.000423206
0.000265425
-0.000116676
-2.93843e-05
-6.93364e-05
-5.81469e-05
-3.24903e-06
2.0828e-05
5.40657e-05
5.3302e-05
7.22866e-05
6.47217e-05
8.67155e-05
8.27611e-05
0.000116249
0.000111677
0.000131799
0.0001237
0.000145246
0.000153766
0.000195975
0.000195016
0.000186605
0.000159182
0.000157644
-4.98558e-06
-0.000214327
-0.00015598
0.00130103
-2.33995e-05
0.000775195
0.00197194
0.00551249
0.00965114
0.000143296
0.000435381
3.47717e-05
0.000507187
0.000256775
-1.02557e-06
8.01719e-05
3.80796e-06
-3.01104e-05
-1.21556e-05
1.67872e-05
5.81429e-05
8.69253e-05
0.000114491
0.000123281
0.000134268
0.000134458
0.000140375
0.000144726
0.000153856
0.000170343
0.000185336
0.000215659
0.000233714
0.000264961
0.000271311
0.000303816
0.000297101
0.000306104
0.000247553
0.00019196
6.68442e-05
3.18697e-05
8.96401e-06
-8.98567e-05
-8.35273e-05
0.00069352
-0.000190003
-0.000132554
0.000186041
-2.49677e-05
0.000247988
0.000130748
0.000531425
9.14309e-05
7.46836e-05
0.000183381
-9.06589e-05
-0.000112641
-5.97637e-05
-3.33645e-05
2.08465e-05
2.38442e-05
4.84782e-05
3.41664e-05
4.50224e-05
2.76903e-05
3.50486e-05
1.85419e-05
1.96991e-05
8.93359e-06
1.05067e-05
1.33903e-05
2.96262e-05
5.59264e-05
5.48037e-05
3.12404e-05
3.21306e-05
0.000350415
0.000381814
0.00055682
0.000745598
0.00537407
-0.00253796
-0.00395191
-0.000228694
-0.000586694
-0.00128946
0.000257907
0.00011016
0.000527422
9.70298e-05
0.000203385
0.000246758
-2.31489e-05
-6.79582e-05
-8.31305e-05
-6.62781e-05
-1.4709e-05
3.09012e-05
7.41067e-05
9.6192e-05
0.000116839
0.000125122
0.000131501
0.000139629
0.000138853
0.000147268
0.000140671
0.000147405
0.000135305
0.000139335
0.000128146
0.000139548
0.000135406
0.00014366
9.61981e-05
6.7643e-05
-5.50593e-06
-7.99344e-05
-0.000144211
-0.000128257
-0.000555056
-0.000719399
0.00106129
-0.000494188
-0.00062681
0.000140033
0.000249337
0.000116983
0.000353817
-4.40838e-06
0.000385574
0.000217996
-0.000154291
-2.89708e-05
-7.35331e-05
-4.08432e-05
-1.08197e-05
2.6152e-05
3.7667e-05
5.5655e-05
5.16613e-05
6.65671e-05
6.17666e-05
8.27529e-05
8.42976e-05
0.000112477
0.000103521
0.000123404
0.000116667
0.000148915
0.000158516
0.000184141
0.000153212
0.000164116
0.000125657
3.63125e-05
-0.000186437
-5.31155e-05
0.000813987
8.75156e-05
0.000612904
0.00139352
0.00417653
0.00659488
0.000112911
0.000362615
2.10291e-05
0.000430412
0.000203758
-5.53311e-05
3.30669e-05
-3.21066e-05
-3.58311e-05
-8.63258e-06
3.31074e-05
6.03873e-05
8.96256e-05
0.000104538
0.00011531
0.000118815
0.000122344
0.000121664
0.000125801
0.000129799
0.000139645
0.000156912
0.000176404
0.000209876
0.000227839
0.000260003
0.000271213
0.000297742
0.000283653
0.000277574
0.000209274
0.000139962
5.18073e-05
5.10916e-06
-0.000134763
-0.000111406
0.000507684
-0.000300529
-0.000413427
0.000117883
-4.70053e-05
0.000206849
8.45209e-05
0.000480046
7.58796e-05
3.65042e-05
0.00020882
-8.79681e-05
-6.26756e-05
-5.42687e-05
-4.66891e-07
1.09331e-05
4.43308e-05
3.52808e-05
5.20687e-05
3.55301e-05
4.59836e-05
3.03452e-05
3.92071e-05
2.15789e-05
2.71471e-05
1.58929e-05
2.64355e-05
3.21339e-05
5.07469e-05
5.3833e-05
3.66765e-05
5.38339e-05
0.000219674
0.000263611
0.000360491
0.000618142
0.00347204
-0.0018544
-0.00318928
-0.000824662
-0.000283428
-0.000776475
0.000211343
9.54511e-05
0.000447579
8.74685e-05
0.000154007
0.000205258
-6.02034e-05
-9.61174e-05
-8.75386e-05
-4.23855e-05
-1.22701e-07
4.98521e-05
7.36011e-05
9.65302e-05
0.000107288
0.000113398
0.000120395
0.000122649
0.000129673
0.000128341
0.000136689
0.000129669
0.000133978
0.000120522
0.000126942
0.000118113
0.000131949
0.000118115
0.000113411
7.06911e-05
5.01594e-05
-4.09555e-05
-7.20817e-05
-0.000143157
-0.000480654
-0.000578493
0.000897358
-0.000478207
-0.000341822
8.18415e-05
0.000216439
7.00727e-05
0.000304306
-2.58826e-06
0.00033958
0.000227274
-0.000124155
8.78245e-06
-2.04962e-05
-1.56517e-05
1.51198e-05
3.15547e-05
5.00695e-05
5.16902e-05
6.11207e-05
5.73765e-05
6.95838e-05
6.82514e-05
8.80702e-05
9.33317e-05
0.000106786
0.000101059
0.00011573
0.000119225
0.000147716
0.000147825
0.000148089
0.000141436
0.000129223
4.47012e-05
-0.000110002
-1.02444e-05
0.000481684
0.000140562
0.000496523
0.00085597
0.00313079
0.00462834
9.48556e-05
0.000299052
3.08817e-05
0.000362796
0.000167134
-9.34348e-05
-3.79858e-06
-3.87389e-05
-2.21197e-05
1.79262e-05
4.9207e-05
7.37085e-05
8.94547e-05
0.000104669
0.0001061
0.000114241
0.000109766
0.000110807
0.000109658
0.000114768
0.000117726
0.000128992
0.000148038
0.000171186
0.000198899
0.000217134
0.000243374
0.000255029
0.000265123
0.000254157
0.00022333
0.000164475
9.75278e-05
2.1739e-05
-0.000131195
-9.84306e-05
0.000312165
-0.000349901
-0.000542516
9.55332e-05
-5.80113e-05
0.000166564
8.33308e-05
0.000423872
5.34293e-05
6.10332e-05
0.000199531
-1.43013e-05
-3.22155e-05
1.6648e-06
6.96266e-06
4.35436e-05
3.97721e-05
6.0268e-05
4.63551e-05
5.94014e-05
4.31621e-05
5.47337e-05
4.08642e-05
4.75381e-05
3.01329e-05
3.82197e-05
2.73034e-05
4.42659e-05
3.74497e-05
4.79662e-05
1.69565e-05
4.19488e-05
8.65096e-05
0.000136139
8.72656e-05
0.000344075
0.00166906
-0.00109175
-0.00258584
-0.00111241
-9.32705e-05
-3.88308e-05
0.000170618
8.91626e-05
0.000383257
5.63265e-05
0.000110398
0.000158608
-8.60934e-05
-9.81646e-05
-5.85466e-05
-2.13936e-05
2.62491e-05
5.33823e-05
8.25878e-05
8.8385e-05
0.00010394
9.84194e-05
0.000103664
0.000112017
0.000115584
0.000124299
0.000123341
0.000128873
0.000119778
0.000119685
0.000108392
0.00011626
0.000106193
0.000116231
8.99449e-05
9.29323e-05
4.12626e-05
2.78983e-05
-5.60102e-05
-6.64895e-05
-0.000381822
-0.000372157
0.00068104
-0.000378018
-0.000155097
7.57279e-05
0.000170568
6.43056e-05
0.000257124
-2.92075e-05
0.000321963
0.000196976
-7.8723e-05
5.3088e-05
1.59719e-05
2.02407e-05
3.32154e-05
4.63543e-05
5.67508e-05
6.12376e-05
6.33086e-05
6.53319e-05
6.76953e-05
7.38144e-05
7.9703e-05
9.4445e-05
9.4779e-05
9.75466e-05
9.79343e-05
0.000105908
0.000119466
0.000126755
0.000125725
0.000129731
0.000116329
6.29649e-05
-6.35278e-05
1.90599e-05
0.000293044
0.000224221
0.000328088
0.000463149
0.00230825
0.00331092
7.20651e-05
0.000251214
1.01706e-05
0.000307095
0.000122076
-0.00012297
-1.30686e-05
-1.98378e-05
3.81515e-06
3.85632e-05
5.99079e-05
7.82747e-05
8.6696e-05
0.000100303
9.15539e-05
0.000106495
9.39616e-05
8.33873e-05
0.000109297
0.000104808
0.000111007
0.000110021
0.000121649
0.000139456
0.00015948
0.000176934
0.000196021
0.000210361
0.000219587
0.000219386
0.0001988
0.000168893
0.000109723
5.45597e-05
-0.000107567
-5.21457e-05
0.000157425
-0.000339271
-0.000588866
5.4676e-05
-6.69833e-05
0.000138802
5.15933e-05
0.000379923
5.25872e-05
6.25572e-05
0.000230104
5.21003e-06
1.91282e-05
9.4286e-06
3.51613e-05
3.92669e-05
5.97452e-05
5.46865e-05
6.6107e-05
5.58311e-05
6.43288e-05
5.3304e-05
6.41264e-05
4.88122e-05
5.3323e-05
3.82756e-05
4.6379e-05
3.82567e-05
4.4948e-05
2.6383e-05
1.93504e-05
5.86703e-07
2.77107e-05
-1.028e-05
-5.58842e-05
-2.12387e-05
0.000749954
-0.000775609
-0.001801
-0.00133156
0.000294759
0.000972415
0.000139913
7.09908e-05
0.000326297
4.03267e-05
7.4724e-05
0.000142791
-8.91147e-05
-7.30616e-05
-3.58994e-05
1.38663e-06
3.20521e-05
5.91698e-05
7.75341e-05
7.53227e-05
0.000104556
5.38023e-05
4.67733e-05
9.37891e-05
8.90915e-05
0.000119879
0.000122153
0.000121378
0.0001184
0.000105158
0.000103723
9.51506e-05
9.98003e-05
8.76771e-05
8.93606e-05
6.64512e-05
5.98488e-05
2.17817e-05
3.59099e-06
-4.37952e-05
-0.00020991
-0.000205402
0.000559011
-0.000267798
-7.54991e-05
3.81392e-05
0.000148355
3.32156e-05
0.000218496
-1.80384e-05
0.000286128
0.000206261
-4.43489e-05
7.72024e-05
3.86477e-05
2.93697e-05
3.41458e-05
4.93409e-05
5.54222e-05
6.49728e-05
6.37271e-05
6.90812e-05
6.75972e-05
7.49476e-05
7.56348e-05
8.9161e-05
8.71308e-05
8.92097e-05
8.45604e-05
8.8646e-05
9.56885e-05
0.000102823
0.000105808
0.000111727
0.00010535
6.68321e-05
-2.30589e-05
5.46408e-05
0.000242395
0.000255343
0.000204659
0.000206059
0.00174907
0.00255616
5.71336e-05
0.000206287
8.79687e-06
0.000257641
9.90651e-05
-0.000134796
-3.60614e-06
-2.55938e-06
2.15591e-05
4.60113e-05
6.26632e-05
7.41848e-05
7.38324e-05
0.000104039
2.54281e-05
4.64692e-05
6.5124e-05
4.94671e-05
0.000102497
8.74249e-05
0.000105748
0.000104166
0.000100252
0.000112303
0.000121676
0.000135667
0.000146895
0.000160113
0.000167124
0.000170034
0.000159124
0.000143407
0.000104136
6.42489e-05
-7.13502e-05
2.37583e-06
6.96972e-05
-0.000298353
-0.00058602
4.15344e-05
-6.89724e-05
0.000109698
5.37302e-05
0.000330679
4.32011e-05
8.38882e-05
0.000207164
3.87393e-05
1.5207e-05
1.76692e-05
2.11485e-05
3.99049e-05
4.90098e-05
5.98839e-05
6.04578e-05
6.46017e-05
6.18246e-05
6.41511e-05
6.25308e-05
6.23655e-05
5.39117e-05
5.13374e-05
4.59406e-05
4.79466e-05
3.96661e-05
3.14839e-05
1.14051e-05
1.86854e-06
-1.85009e-05
-4.91249e-05
-0.000155835
-0.000111439
0.000225537
-0.000437097
-0.00125561
-0.00127758
0.000598291
0.00151323
0.000111313
5.8699e-05
0.000278923
1.37613e-05
5.22469e-05
0.000120126
-7.77539e-05
-5.2852e-05
-1.87583e-05
9.55106e-06
3.53782e-05
5.24896e-05
8.44975e-05
1.25934e-06
4.55173e-05
1.51278e-05
1.11118e-05
6.43197e-05
3.57855e-05
9.71519e-05
9.028e-05
0.000108209
0.000104752
9.60664e-05
8.69595e-05
8.43359e-05
7.78497e-05
7.4867e-05
6.46103e-05
5.75744e-05
4.00977e-05
3.2102e-05
6.01143e-06
6.33444e-06
-0.000125279
-1.30172e-05
0.000437753
-0.000190605
-1.29834e-05
3.68804e-05
0.00011508
3.13357e-05
0.00018187
-2.97139e-05
0.000266829
0.000176217
-2.2643e-05
7.74153e-05
3.16909e-05
1.76002e-05
2.26626e-05
3.3745e-05
4.93734e-05
5.58509e-05
6.26952e-05
6.3276e-05
6.7098e-05
6.80965e-05
7.227e-05
7.73055e-05
8.04803e-05
7.69876e-05
7.37194e-05
7.08691e-05
7.66978e-05
8.05861e-05
8.86651e-05
9.18912e-05
9.6123e-05
6.31691e-05
1.84704e-05
9.02622e-05
0.000229503
0.000268659
9.17709e-05
8.63826e-05
0.00135474
0.00197619
3.84236e-05
0.000171594
-1.13967e-05
0.000219504
6.98485e-05
-0.000128679
7.39007e-06
1.09017e-05
3.04047e-05
4.71828e-05
5.89942e-05
7.44103e-05
1.62473e-05
5.48927e-05
-1.71244e-05
5.81539e-06
4.03364e-05
1.78207e-05
7.94359e-05
3.95136e-05
9.39953e-05
8.2782e-05
8.36929e-05
8.51785e-05
9.16742e-05
9.61662e-05
0.000104432
0.00011049
0.0001176
0.000117222
0.000115252
0.000103819
8.4784e-05
5.21027e-05
-3.92649e-05
4.31535e-05
2.71665e-05
-0.000251155
-0.000548673
1.5754e-05
-7.16753e-05
9.0192e-05
3.31945e-05
0.000292215
4.60217e-05
7.67597e-05
0.000207638
2.68478e-05
1.34475e-05
-2.41992e-06
5.40474e-06
2.24952e-05
3.84124e-05
4.96127e-05
5.57313e-05
5.87066e-05
5.99244e-05
6.01023e-05
6.15421e-05
6.0314e-05
5.60033e-05
5.05087e-05
4.85528e-05
4.79505e-05
4.38385e-05
3.39629e-05
2.19193e-05
6.4712e-06
-1.25821e-05
-5.72359e-05
-0.000137048
-0.00012053
4.7092e-05
-0.000221654
-0.000891258
-0.00108884
0.00082986
0.00153881
8.95596e-05
4.18636e-05
0.00023626
4.05334e-06
3.79274e-05
0.000115717
-6.04888e-05
-3.74904e-05
-7.65905e-06
1.38013e-05
3.57104e-05
3.21817e-05
6.22585e-05
-2.6703e-05
1.39366e-05
2.87427e-05
2.99479e-05
5.92454e-05
6.82556e-06
9.11038e-05
7.18612e-05
9.31962e-05
8.98406e-05
8.28148e-05
7.33982e-05
6.72299e-05
6.16856e-05
5.53167e-05
4.81863e-05
3.81943e-05
2.91818e-05
2.04366e-05
1.23805e-05
1.10366e-05
-5.27259e-05
8.10648e-05
0.000348855
-0.000117595
9.99372e-07
1.23627e-05
9.91904e-05
1.06378e-05
0.000152973
-1.65703e-05
0.000232708
0.000175825
-1.13257e-05
6.8941e-05
2.23162e-05
-2.54636e-06
2.74168e-06
1.78143e-05
3.40952e-05
4.56192e-05
5.21662e-05
5.58589e-05
5.78198e-05
6.00584e-05
6.1588e-05
6.57558e-05
6.77773e-05
6.56489e-05
6.05047e-05
5.77115e-05
5.92225e-05
6.48018e-05
7.08918e-05
7.76112e-05
8.19409e-05
6.07016e-05
4.61211e-05
0.000107325
0.000221955
0.000233909
7.96899e-06
5.7255e-05
0.00106576
0.00144033
2.81791e-05
0.000139024
-1.31476e-05
0.000184749
5.89256e-05
-0.000110466
1.48155e-05
1.99046e-05
3.08946e-05
4.76499e-05
5.2341e-05
6.23462e-05
4.56962e-07
3.87668e-05
1.12582e-05
3.3065e-05
4.79048e-05
2.17266e-05
8.87158e-05
4.90063e-05
7.82351e-05
5.50733e-05
6.81909e-05
6.85568e-05
6.62636e-05
6.61872e-05
6.79697e-05
7.1446e-05
7.40748e-05
7.39474e-05
7.37232e-05
6.6251e-05
5.90051e-05
3.01491e-05
-1.34353e-05
5.57997e-05
1.5876e-05
-0.00021421
-0.000492158
8.7827e-06
-6.94593e-05
6.94659e-05
3.60856e-05
0.000250836
4.01923e-05
8.45791e-05
0.000176747
3.34854e-05
-2.81977e-06
-1.62475e-05
-1.23047e-05
6.03348e-06
2.38228e-05
3.69507e-05
4.48214e-05
4.88385e-05
5.08344e-05
5.14348e-05
5.27742e-05
5.31231e-05
4.98935e-05
4.55319e-05
4.46866e-05
4.59323e-05
4.45669e-05
3.8749e-05
3.1685e-05
2.00054e-05
3.6331e-06
-3.58702e-05
-8.69622e-05
-8.13169e-05
9.85659e-06
-0.000114972
-0.00064652
-0.00081719
0.000892564
0.00130216
6.97656e-05
3.11668e-05
0.000200407
-1.17332e-05
3.52324e-05
0.000100017
-4.73312e-05
-2.56219e-05
1.67899e-07
1.73457e-05
3.37419e-05
2.57643e-05
4.89965e-05
-1.54527e-05
2.24455e-05
3.22051e-05
3.40692e-05
6.28593e-05
2.56737e-05
5.29482e-05
1.77269e-05
6.48003e-05
5.71281e-05
6.35106e-05
5.6994e-05
5.05669e-05
4.52675e-05
3.94649e-05
3.28054e-05
2.43432e-05
1.80056e-05
1.08083e-05
1.01823e-05
5.10034e-06
-1.01663e-05
0.000110919
0.00027704
-8.7874e-05
1.12496e-05
1.32505e-05
7.49785e-05
1.06469e-05
0.000125689
-2.15895e-05
0.000212143
0.000148537
-4.28718e-06
6.02848e-05
5.52908e-06
-1.39729e-05