/*--------------------------------*- C++ -*----------------------------------*\
| =========                 |                                                 |
| \\      /  F ield         | OpenFOAM: The Open Source CFD Toolbox           |
|  \\    /   O peration     | Version:  2312                                  |
|   \\  /    A nd           | Website:  www.openfoam.com                      |
|    \\/     M anipulation  |                                                 |
\*---------------------------------------------------------------------------*/
FoamFile
{
    version     2.0;
    format      ascii;
    arch        "LSB;label=32;scalar=64";
    class       volScalarField;
    location    "50";
    object      magR;
}
// * * * * * * * * * * * * * * * * * * * * * * * * * * * * * * * * * * * * * //

dimensions      [0 2 -2 0 0 0 0];

internalField   nonuniform List<scalar> 
10720
(
0.0129276
0.0153331
0.0184778
0.0227291
0.0278926
0.0345576
0.0432009
0.054089
0.0680485
0.085924
0.108803
0.138841
0.179038
0.234858
0.313117
0.426426
0.594842
0.857619
1.27709
1.98261
3.22239
5.68618
9.72828
23.3515
24.0406
17.4117
13.2631
9.73494
7.64877
6.43935
4.76304
3.55158
4.44009
2.28629
0.978559
2.96836
3.07605
2.45905
4.61559
0.0108235
0.00912311
0.00731262
0.0057476
0.00444281
0.00374333
0.00424915
0.00557037
0.00776286
0.0110493
0.0157858
0.0224628
0.0317417
0.0445244
0.062069
0.0866955
0.12243
0.176358
0.261879
0.40159
0.641563
1.0698
1.91018
3.43584
6.96065
14.1232
31.5951
54.4595
68.2866
73.1643
74.3268
74.3312
73.6896
72.5003
70.7974
68.6897
65.6918
61.8488
51.7449
0.00305799
0.00305752
0.0030294
0.00295622
0.0028433
0.00270406
0.0025338
0.00233853
0.00213788
0.00193386
0.00173648
0.00155922
0.0014076
0.00126874
0.00127933
0.00153465
0.00247839
0.00520957
0.0124376
0.034649
0.101149
0.393077
1.07569
5.18108
13.5787
23.4716
31.4104
33.0391
29.5522
24.451
20.2031
16.3286
10.8627
5.48368
7.02834
10.6373
12.9488
15.7219
15.1844
0.00302441
0.00297063
0.00288277
0.00273911
0.00255919
0.00238324
0.00218429
0.00195384
0.00172142
0.00150189
0.00129542
0.00110486
0.000932484
0.000779935
0.00064883
0.000539604
0.000447911
0.000371522
0.0003042
0.00024162
0.000177796
0.000110157
5.92438e-05
3.01359e-05
0.00082261
0.00547977
0.0369303
0.18704
0.470676
0.801231
1.11265
1.36663
1.56593
1.73552
1.89329
2.06464
2.24323
2.72126
3.67011
0.00214762
0.00211018
0.00204607
0.00195602
0.00185828
0.00174784
0.00163096
0.00152106
0.00142216
0.00134099
0.00127908
0.00123525
0.00120814
0.00119199
0.00119057
0.00123232
0.00120264
0.00117055
0.000494097
0.000224189
0.0078873
0.00237045
0.000696355
0.0370236
0.715078
3.76135
11.6282
24.4777
33.9565
34.5326
30.8793
25.4816
17.6561
12.7856
17.2188
19.9717
19.5581
17.3522
17.923
0.00217343
0.00218085
0.00216765
0.0021031
0.00199972
0.00187451
0.00174635
0.00158808
0.00140091
0.00120049
0.00100118
0.0008176
0.000657777
0.00052453
0.000421323
0.000345061
0.000291322
0.0002547
0.000230993
0.000216546
0.000208723
0.000206746
0.000209569
0.000216847
0.000223099
0.000225954
0.000212643
0.000213696
0.00262317
0.0103975
0.0234667
0.0465876
0.10449
0.20767
0.347302
0.505734
0.663671
0.794022
1.13504
0.00170789
0.00170694
0.00169577
0.00167674
0.00164569
0.00160149
0.00154733
0.00148187
0.00140773
0.00132647
0.00123968
0.00114974
0.00105918
0.000967997
0.000875893
0.000782956
0.000678488
0.000575744
0.000448641
0.000370615
4.34297e-05
0.000175951
0.000195671
0.00575971
0.026656
0.0164582
0.4907
4.10701
15.4415
29.552
35.7673
33.0009
25.1013
20.9104
24.8902
26.3644
24.3103
19.5421
18.0748
0.00169663
0.00168003
0.00164989
0.00159786
0.0015324
0.00145621
0.0013639
0.00125196
0.00112935
0.0010055
0.000886255
0.000776352
0.000677575
0.000590546
0.000516291
0.000453534
0.000401585
0.000359071
0.000325308
0.000298153
0.000276282
0.000257455
0.000239434
0.00021868
0.000196255
0.000177832
0.000164013
0.000156033
0.000134849
0.000128253
7.39284e-06
6.54972e-05
0.000700964
0.000912395
0.00453376
0.0205263
0.0605769
0.154228
0.441827
0.00131719
0.00131098
0.0012981
0.00127639
0.0012459
0.00120558
0.00115666
0.00109982
0.0010367
0.000970218
0.000902672
0.000836722
0.000774908
0.000718992
0.000669858
0.000629464
0.000598607
0.000568704
0.000530907
0.000483327
0.000390375
0.000224852
1.37511e-07
5.32543e-10
0
0.0067516
0.0323889
0.00854372
1.14517
9.48806
24.8358
33.0524
30.8218
28.8437
31.9359
31.87
27.9006
21.205
17.3812
0.00131495
0.0013079
0.00129007
0.001254
0.00120876
0.00115552
0.00109175
0.00101502
0.000929632
0.000839242
0.000746465
0.000654794
0.000567095
0.000485532
0.000412345
0.00034868
0.00029509
0.000251408
0.000217189
0.00019112
0.000171874
0.000157774
0.00014713
0.000137305
0.000126546
0.000115911
0.000108031
0.000103336
0.000101845
9.79328e-05
9.2179e-05
2.05352e-05
0.000355437
8.34255e-06
2.29761e-05
8.15436e-05
0.00165038
0.00533848
0.0801386
0.00105821
0.00105892
0.00105593
0.0010484
0.00103572
0.00101699
0.00099252
0.000962013
0.000925905
0.000885124
0.000840175
0.000792023
0.000741687
0.000689763
0.000636832
0.00058403
0.000529869
0.000469638
0.000406823
0.000344571
0.000294339
0.000236248
0.000197528
1.46763e-05
1.02097e-06
0
0
0.00383332
0.0546265
0.417979
6.77185
20.679
29.9179
34.2665
37.6983
36.2728
30.4896
22.3143
16.6578
0.00105195
0.00104318
0.00102789
0.00100065
0.000968739
0.000931067
0.000885294
0.00083062
0.000769981
0.000705594
0.000639272
0.000573493
0.000510402
0.000451529
0.000398225
0.000351357
0.000311176
0.000277442
0.000249675
0.000226973
0.00020826
0.00019217
0.000177256
0.000161535
0.000144216
0.000127339
0.000112894
0.000101339
9.20655e-05
8.41973e-05
7.61218e-05
6.5765e-05
4.92319e-05
2.73427e-05
4.24057e-06
5.72394e-06
0.000265815
0.00122546
0.00939805
0.000857033
0.000858345
0.000857357
0.000852742
0.000844451
0.000831472
0.000813762
0.000791091
0.00076354
0.000731728
0.000696148
0.000657553
0.000616951
0.000575119
0.000532961
0.000491231
0.000451315
0.000414995
0.000380491
0.00034399
0.00030642
0.000266032
0.000240875
0.000193099
1.52386e-05
3.44469e-06
0
0
0
0.0664642
0.219727
5.51416
19.5243
33.6927
40.8311
39.2069
32.0779
22.8793
16.0245
0.000851568
0.000844413
0.00083254
0.000811904
0.000788762
0.000761164
0.000727609
0.000688129
0.000644453
0.000597632
0.000548616
0.000498792
0.000449518
0.000401878
0.000356963
0.000315709
0.000278689
0.0002462
0.000218346
0.000194877
0.000175353
0.000159032
0.000144881
0.000131287
0.000117087
0.000103018
9.04503e-05
8.00033e-05
7.15695e-05
6.5209e-05
6.12379e-05
5.96691e-05
5.83203e-05
5.40007e-05
4.39514e-05
2.25132e-05
2.29509e-06
8.8183e-08
0.000273054
0.000705036
0.000707609
0.000708873
0.000707581
0.000704059
0.000697305
0.000687305
0.000673781
0.000656589
0.00063607
0.000612244
0.000585473
0.000556225
0.000524825
0.000491737
0.000457372
0.00042243
0.000385779
0.000346806
0.000307436
0.000270327
0.000237419
0.000212699
0.000212278
0.000172211
5.12047e-05
4.55369e-06
0
0
0
0.0668959
0.185735
6.57493
24.8431
38.9189
39.6934
32.3796
22.8039
15.3566
0.000699532
0.000693116
0.000683462
0.000667431
0.000650274
0.000629599
0.000604518
0.000575442
0.000543424
0.000508998
0.000472639
0.000435311
0.000397929
0.000361262
0.000326134
0.000293379
0.000263537
0.000236985
0.00021388
0.000194084
0.000177213
0.000162606
0.000149317
0.000136055
0.000121986
0.000107772
9.45628e-05
8.28489e-05
7.24664e-05
6.32186e-05
5.50459e-05
4.77549e-05
4.13203e-05
3.5714e-05
3.21045e-05
2.88325e-05
2.0252e-05
1.97388e-06
1.71677e-05
0.000585801
0.00058868
0.00059079
0.000590908
0.000589552
0.000585835
0.000579629
0.00057069
0.000558826
0.000544102
0.000526513
0.000506201
0.000483451
0.000458536
0.000431873
0.000403856
0.00037487
0.000345604
0.000316546
0.000287537
0.000258696
0.000231265
0.000207051
0.000190217
0.000190639
0.00016488
7.30936e-05
4.93998e-06
0
0
0
0.0636758
0.64128
11.8332
29.9809
35.9645
30.6289
21.7971
14.4354
0.000580792
0.000575223
0.000567467
0.000554891
0.000541802
0.000526002
0.000506998
0.000485285
0.000461493
0.000435903
0.000408731
0.000380526
0.000351874
0.000323252
0.000295196
0.000268318
0.000243132
0.000220005
0.000199196
0.000180766
0.000164568
0.0001502
0.000137014
0.000124121
0.000110914
9.77594e-05
8.55676e-05
7.48662e-05
6.56435e-05
5.7765e-05
5.12616e-05
4.61959e-05
4.22928e-05
3.93841e-05
3.715e-05
3.6296e-05
3.6161e-05
3.5801e-05
1.38328e-06
0.000491364
0.000494362
0.000496968
0.00049806
0.000498186
0.000496689
0.000493348
0.000487984
0.000480401
0.00047058
0.000458422
0.000443963
0.000427332
0.000408657
0.00038816
0.000366061
0.000342687
0.000318355
0.000292642
0.00026612
0.000240118
0.000216166
0.000195809
0.000178719
0.000167517
0.000166112
0.000149851
8.11949e-05
4.27895e-06
0
0
0
0.0759447
2.76222
16.228
26.6565
25.7025
19.2991
12.9566
0.000486763
0.000481871
0.00047558
0.000465621
0.000455394
0.000443164
0.000428612
0.000412179
0.000394299
0.000375077
0.000354617
0.00033326
0.000311332
0.000289111
0.000266981
0.000245396
0.00022476
0.00020544
0.000187682
0.000171616
0.000157188
0.000144125
0.000131943
0.000120019
0.000107883
9.57868e-05
8.44237e-05
7.42275e-05
6.51854e-05
5.71516e-05
5.00614e-05
4.38926e-05
3.8522e-05
3.40883e-05
3.03097e-05
2.87413e-05
2.64115e-05
4.20369e-05
1.93994e-05
0.000415305
0.000418239
0.000420983
0.000422574
0.000423519
0.000423313
0.000421681
0.000418562
0.000413689
0.000407033
0.000398457
0.000387918
0.000375453
0.000361098
0.000344988
0.000327312
0.000308226
0.00028816
0.000267204
0.000245761
0.000224474
0.000204188
0.000186199
0.000171118
0.000157061
0.000145754
0.000141099
0.000134569
6.696e-05
2.88405e-06
0
0
0.0104236
0.0759958
4.74998
13.6642
17.0538
14.7769
10.5956
0.000411153
0.000406855
0.000401718
0.000393777
0.000385658
0.000376072
0.000364812
0.000352246
0.00033867
0.000324141
0.000308639
0.000292388
0.000275572
0.000258332
0.000240885
0.000223545
0.000206609
0.000190362
0.000175063
0.000160851
0.000147742
0.000135602
0.000124127
0.000112901
0.000101613
9.04335e-05
7.98682e-05
7.03046e-05
6.17886e-05
5.42394e-05
4.76361e-05
4.20655e-05
3.74426e-05
3.38652e-05
3.10923e-05
3.02614e-05
2.90504e-05
3.91513e-05
4.68709e-05
0.000353365
0.000356157
0.00035888
0.000360718
0.00036217
0.000362786
0.000362335
0.000360746
0.000357815
0.000353489
0.000347624
0.000340136
0.000331006
0.000320233
0.000307862
0.000294007
0.000278767
0.000262525
0.000245212
0.00022703
0.000208738
0.000191229
0.000175425
0.000161924
0.000149579
0.000136503
0.000124372
0.000119149
0.000116823
4.26251e-05
9.99389e-07
0
0
0.0697566
0.295475
3.4174
6.89325
8.18479
7.10778
0.000349646
0.000345839
0.000341606
0.000335243
0.00032872
0.000321107
0.000312321
0.000302634
0.000292242
0.000281164
0.000269366
0.000256963
0.000244055
0.000230677
0.000216978
0.000203145
0.000189372
0.000175889
0.000162897
0.000150562
0.000138949
0.000127991
0.000117482
0.000107148
9.68127e-05
8.65811e-05
7.68341e-05
6.78937e-05
5.98343e-05
5.26034e-05
4.61787e-05
4.06052e-05
3.58058e-05
3.19285e-05
2.88153e-05
2.75361e-05
2.6727e-05
3.31499e-05
5.17218e-05
0.000302359
0.000304965
0.00030759
0.000309526
0.000311226
0.000312313
0.000312606
0.000312039
0.000310422
0.000307708
0.00030376
0.000298478
0.000291816
0.00028372
0.000274214
0.000263358
0.000251207
0.000238026
0.000223925
0.000209001
0.000193779
0.000178955
0.000165195
0.000152949
0.000141764
0.000130152
0.000117652
0.000104405
0.000102215
0.000102492
1.216e-05
1.75362e-08
0
0.00273543
0.0838781
0.281992
1.00719
2.0808
2.6873
0.000299062
0.000295696
0.000292176
0.000287036
0.000281739
0.000275645
0.000268735
0.0002612
0.000253191
0.000244707
0.000235689
0.00022619
0.000216259
0.000205903
0.00019515
0.000184138
0.000172985
0.000161853
0.000150894
0.000140248
0.000129995
0.000120117
0.000110498
0.000100985
9.1488e-05
8.20973e-05
7.30951e-05
6.47577e-05
5.71826e-05
5.03529e-05
4.42651e-05
3.8975e-05
3.44486e-05
3.08114e-05
2.78884e-05
2.6584e-05
2.57579e-05
3.02639e-05
4.8101e-05
0.000259987
0.000262382
0.000264868
0.000266802
0.000268611
0.000269982
0.000270736
0.000270842
0.000270142
0.000268567
0.000266017
0.000262365
0.000257579
0.000251597
0.000244388
0.000235979
0.000226397
0.000215811
0.000204391
0.000192112
0.000179378
0.000166827
0.000154959
0.000144089
0.000133936
0.000123574
0.000112702
0.000100291
8.77294e-05
9.50901e-05
7.03024e-05
2.06319e-06
0
0
0.022489
0.0956245
0.194908
0.322795
0.424533
0.000257065
0.000254109
0.000251149
0.000246971
0.000242634
0.000237721
0.000232233
0.000226342
0.000220128
0.000213594
0.000206672
0.000199386
0.000191745
0.000183714
0.000175306
0.000166577
0.00015759
0.00014846
0.000139295
0.000130201
0.000121247
0.000112452
0.000103763
9.51143e-05
8.64733e-05
7.79179e-05
6.96669e-05
6.19478e-05
5.48639e-05
4.84223e-05
4.26245e-05
3.7506e-05
3.3059e-05
2.93969e-05
2.63603e-05
2.48083e-05
2.37138e-05
2.74147e-05
4.33132e-05
0.000224504
0.000226687
0.000229012
0.000230878
0.000232704
0.00023422
0.000235248
0.000235795
0.000235715
0.00023494
0.000233392
0.000230959
0.000227581
0.000223199
0.000217766
0.000211292
0.000203793
0.000195345
0.000186146
0.000176146
0.000165607
0.000155066
0.000144901
0.000135351
0.000126253
0.000116985
0.000107126
9.73826e-05
8.48201e-05
7.58777e-05
9.19785e-05
2.938e-05
3.39738e-08
0
6.5908e-06
0.00205447
0.0171667
0.0466991
0.0497541
0.000221915
0.000219333
0.000216831
0.000213401
0.000209823
0.000205838
0.000201458
0.000196818
0.000191978
0.000186923
0.000181597
0.000175984
0.000170092
0.000163875
0.000157305
0.000150413
0.000143215
0.000135765
0.000128141
0.000120419
0.000112668
0.000104913
9.71336e-05
8.9304e-05
8.14567e-05
7.36747e-05
6.61262e-05
5.89946e-05
5.2389e-05
4.6334e-05
4.08437e-05
3.59548e-05
3.16897e-05
2.81444e-05
2.51699e-05
2.35273e-05
2.23178e-05
2.52141e-05
3.92361e-05
0.000194578
0.000196567
0.000198714
0.000200482
0.000202272
0.000203837
0.000205026
0.00020585
0.000206187
0.000205978
0.000205149
0.000203597
0.000201277
0.000198121
0.000194097
0.000189177
0.000183365
0.000176687
0.000169338
0.000161234
0.00015255
0.000143731
0.00013507
0.000126754
0.000118676
0.000110452
0.000101568
9.28979e-05
8.39019e-05
7.00301e-05
7.6829e-05
6.81446e-05
1.74631e-06
0
0
0.000277064
0.00317935
0.00130724
0.00972198
0.000192296
0.00019004
0.000187924
0.000185085
0.000182113
0.000178858
0.000175342
0.000171668
0.000167875
0.000163952
0.000159836
0.000155512
0.000150971
0.000146154
0.000141032
0.000135593
0.000129844
0.000123799
0.000117501
0.000111001
0.000104345
9.7564e-05
9.06557e-05
8.36368e-05
7.65653e-05
6.95266e-05
6.26535e-05
5.60991e-05
4.99696e-05
4.43013e-05
3.9118e-05
3.44557e-05
3.03398e-05
2.68546e-05
2.38653e-05
2.20622e-05
2.06899e-05
2.29275e-05
3.55351e-05
0.000169187
0.000170997
0.000172961
0.00017462
0.000176333
0.000177888
0.000179154
0.000180146
0.000180749
0.000180922
0.000180607
0.000179703
0.000178185
0.000175979
0.000173042
0.000169347
0.000164885
0.000159655
0.000153832
0.000147328
0.00014023
0.000132901
0.000125572
0.000118392
0.000111289
0.00010401
9.62196e-05
8.80891e-05
8.08824e-05
7.0476e-05
6.29626e-05
7.45041e-05
2.59603e-05
9.48351e-08
0
0
0
0.000189095
0
0.000167183
0.000165223
0.000163422
0.00016105
0.000158566
0.000155898
0.000153058
0.000150135
0.000147151
0.000144094
0.000140906
0.000137565
0.000134056
0.00013033
0.000126338
0.000122065
0.000117487
0.000112608
0.000107435
0.000102001
9.63306e-05
9.04469e-05
8.436e-05
7.81101e-05
7.17728e-05
6.5429e-05
5.91937e-05
5.31947e-05
4.75281e-05
4.22416e-05
3.73647e-05
3.29373e-05
2.89895e-05
2.55916e-05
2.26194e-05
2.06796e-05
1.91514e-05
2.07417e-05
3.19997e-05
0.000147533
0.000149173
0.000150959
0.000152504
0.000154114
0.000155627
0.000156906
0.000157987
0.000158763
0.000159201
0.000159246
0.000158825
0.000157894
0.000156402
0.000154307
0.000151576
0.0001482
0.000144152
0.000139578
0.000134419
0.000128672
0.00012262
0.00011646
0.000110314
0.000104136
9.77338e-05
9.09542e-05
8.36604e-05
7.68505e-05
6.98985e-05
5.93233e-05
6.20615e-05
5.86257e-05
2.44348e-07
5.27912e-10
0
0
0
0
0.000145769
0.000144077
0.000142537
0.000140533
0.000138455
0.000136254
0.000133953
0.000131613
0.000129257
0.000126863
0.000124388
0.000121804
0.000119093
0.000116205
0.000113098
0.000109744
0.000106111
0.000102187
9.79626e-05
9.34442e-05
8.86498e-05
8.35941e-05
7.82826e-05
7.27548e-05
6.70984e-05
6.1411e-05
5.5782e-05
5.03172e-05
4.51025e-05
4.01925e-05
3.5621e-05
3.14291e-05
2.76476e-05
2.4332e-05
2.13691e-05
1.92833e-05
1.75932e-05
1.86286e-05
2.85857e-05
0.000128977
0.000130456
0.000132081
0.000133498
0.000135007
0.000136445
0.00013771
0.000138821
0.000139698
0.000140307
0.000140603
0.000140517
0.000140025
0.000139074
0.000137632
0.00013566
0.000133145
0.000130063
0.000126501
0.00012245
0.000117847
0.000112891
0.00010776
0.000102547
9.72299e-05
9.16572e-05
8.57516e-05
7.94464e-05
7.30426e-05
6.74034e-05
5.94947e-05
5.36791e-05
6.04713e-05
3.42572e-05
1.94581e-06
4.66181e-08
0
0
0
0.000127422
0.000125961
0.000124642
0.000122941
0.000121195
0.000119371
0.000117496
0.000115618
0.000113747
0.000111871
0.000109945
0.000107939
0.000105841
0.000103603
0.000101183
9.85552e-05
9.56808e-05
9.25346e-05
8.9101e-05
8.53721e-05
8.13449e-05
7.70234e-05
7.24142e-05
6.75625e-05
6.25569e-05
5.74837e-05
5.24239e-05
4.74654e-05
4.26874e-05
3.8144e-05
3.38744e-05
2.99176e-05
2.63078e-05
2.30819e-05
2.01394e-05
1.79212e-05
1.60703e-05
1.6616e-05
2.53285e-05
0.000113009
0.00011434
0.00011581
0.000117107
0.000118502
0.000119859
0.000121077
0.000122188
0.000123114
0.000123826
0.000124292
0.000124451
0.000124283
0.000123746
0.000122799
0.00012142
0.000119585
0.000117274
0.000114528
0.000111372
0.000107722
0.000103702
9.94688e-05
9.50975e-05
9.05721e-05
8.57823e-05
8.06661e-05
7.52619e-05
6.9594e-05
6.43739e-05
5.89395e-05
5.17827e-05
5.26011e-05
5.82372e-05
2.84658e-05
1.04574e-06
1.18911e-06
0
0
0.000111636
0.000110372
0.000109241
0.000107792
0.000106316
0.0001048
0.000103265
0.000101749
0.00010026
9.8784e-05
9.72819e-05
9.57268e-05
9.40986e-05
9.23639e-05
9.04799e-05
8.84205e-05
8.61506e-05
8.36387e-05
8.08572e-05
7.77921e-05
7.44324e-05
7.07687e-05
6.67992e-05
6.25683e-05
5.81621e-05
5.36575e-05
4.91297e-05
4.46518e-05
4.02936e-05
3.61078e-05
3.21354e-05
2.8413e-05
2.49753e-05
2.18422e-05
1.89252e-05
1.65864e-05
1.4574e-05
1.46932e-05
2.22577e-05
9.92142e-05
0.000100413
0.000101736
0.000102917
0.000104201
0.000105466
0.000106623
0.000107708
0.000108646
0.000109415
0.000109992
0.00011032
0.000110383
0.000110148
0.000109581
0.000108658
0.000107357
0.000105659
0.000103583
0.000101162
9.83e-05
9.50667e-05
9.16066e-05
8.79794e-05
8.41728e-05
8.01039e-05
7.57237e-05
7.10979e-05
6.62563e-05
6.15199e-05
5.72423e-05
5.1784e-05
4.88944e-05
5.75553e-05
6.19911e-05
4.1603e-05
2.49153e-05
3.75537e-08
0
9.80006e-05
9.69052e-05
9.59351e-05
9.46946e-05
9.344e-05
9.21758e-05
9.09144e-05
8.96874e-05
8.84989e-05
8.7337e-05
8.61608e-05
8.4948e-05
8.36846e-05
8.23372e-05
8.08712e-05
7.92591e-05
7.74682e-05
7.54682e-05
7.32267e-05
7.07212e-05
6.79296e-05
6.48432e-05
6.14505e-05
5.7785e-05
5.39221e-05
4.99427e-05
4.59106e-05
4.18866e-05
3.79289e-05
3.40893e-05
3.04068e-05
2.69166e-05
2.3651e-05
2.06176e-05
1.7734e-05
1.52885e-05
1.31151e-05
1.28503e-05
1.93754e-05
8.72542e-05
8.83316e-05
8.95235e-05
9.0591e-05
9.17688e-05
9.29412e-05
9.40285e-05
9.50695e-05
9.59957e-05
9.67886e-05
9.74273e-05
9.78664e-05
9.80941e-05
9.80799e-05
9.78007e-05
9.72296e-05
9.63489e-05
9.51406e-05
9.3603e-05
9.17774e-05
8.95633e-05
8.69908e-05
8.41905e-05
8.12097e-05
7.80452e-05
7.46298e-05
7.09289e-05
6.70008e-05
6.29132e-05
5.88358e-05
5.517e-05
5.13127e-05
4.86136e-05
5.3827e-05
6.3835e-05
6.75904e-05
9.6278e-05
1.62557e-07
0
8.61821e-05
8.52277e-05
8.43933e-05
8.33288e-05
8.22599e-05
8.12015e-05
8.01628e-05
7.91654e-05
7.82134e-05
7.72943e-05
7.63762e-05
7.54308e-05
7.4448e-05
7.33998e-05
7.22555e-05
7.09946e-05
6.95847e-05
6.79929e-05
6.61906e-05
6.41505e-05
6.18473e-05
5.92593e-05
5.63728e-05
5.32136e-05
4.98513e-05
4.63554e-05
4.27811e-05
3.91801e-05
3.56019e-05
3.20933e-05
2.8693e-05
2.54309e-05
2.23343e-05
1.94071e-05
1.65696e-05
1.40365e-05
1.17029e-05
1.10927e-05
1.66942e-05
7.68536e-05
7.78214e-05
7.8891e-05
7.98553e-05
8.0932e-05
8.20103e-05
8.30256e-05
8.40103e-05
8.49078e-05
8.56993e-05
8.63711e-05
8.68805e-05
8.72213e-05
8.7368e-05
8.72983e-05
8.69955e-05
8.64389e-05
8.56127e-05
8.45051e-05
8.31625e-05
8.1482e-05
7.94625e-05
7.7224e-05
7.48051e-05
7.22057e-05
6.93725e-05
6.62842e-05
6.29928e-05
5.95697e-05
5.61781e-05
5.30968e-05
5.02089e-05
4.8809e-05
5.24409e-05
5.85255e-05
6.99926e-05
0.000124561
2.27021e-07
0
7.5904e-05
7.50702e-05
7.43521e-05
7.34344e-05
7.25206e-05
7.16338e-05
7.0773e-05
6.99611e-05
6.91977e-05
6.84703e-05
6.77493e-05
6.70112e-05
6.62444e-05
6.5429e-05
6.45374e-05
6.35489e-05
6.24379e-05
6.11742e-05
5.97287e-05
5.80732e-05
5.61806e-05
5.40231e-05
5.15821e-05
4.88757e-05
4.5963e-05
4.29059e-05
3.97501e-05
3.65415e-05
3.3321e-05
3.01286e-05
2.70013e-05
2.39626e-05
2.10343e-05
1.82227e-05
1.54397e-05
1.28373e-05
1.0349e-05
9.4179e-06
1.42242e-05
6.77839e-05
6.86529e-05
6.96116e-05
7.04821e-05
7.14597e-05
7.245e-05
7.33898e-05
7.43132e-05
7.5168e-05
7.5941e-05
7.66193e-05
7.71683e-05
7.75805e-05
7.78405e-05
7.79266e-05
7.78243e-05
7.75176e-05
7.69905e-05
7.6226e-05
7.5273e-05
7.40274e-05
7.24689e-05
7.07047e-05
6.87691e-05
6.66627e-05
6.43444e-05
6.18017e-05
5.9086e-05
5.62595e-05
5.34987e-05
5.10341e-05
4.88155e-05
4.83929e-05
5.19389e-05
5.46236e-05
6.84452e-05
0.000120926
2.31036e-07
0
6.69384e-05
6.62116e-05
6.55912e-05
6.4799e-05
6.4016e-05
6.32696e-05
6.25541e-05
6.18892e-05
6.12745e-05
6.06979e-05
6.01334e-05
5.95577e-05
5.89603e-05
5.83227e-05
5.76238e-05
5.68503e-05
5.59757e-05
5.49737e-05
5.38166e-05
5.24783e-05
5.09294e-05
4.91397e-05
4.70854e-05
4.47773e-05
4.22642e-05
3.96003e-05
3.68282e-05
3.39821e-05
3.10955e-05
2.82037e-05
2.53376e-05
2.25183e-05
1.97609e-05
1.70709e-05
1.43566e-05
1.17067e-05
9.07549e-06
7.83058e-06
1.19656e-05
5.9855e-05
6.06349e-05
6.14931e-05
6.22795e-05
6.31659e-05
6.40703e-05
6.4935e-05
6.57945e-05
6.66012e-05
6.73422e-05
6.80115e-05
6.85754e-05
6.90309e-05
6.93658e-05
6.95608e-05
6.96075e-05
6.94891e-05
6.91938e-05
6.87002e-05
6.80565e-05
6.71695e-05
6.59887e-05
6.46191e-05
6.30926e-05
6.14146e-05
5.95486e-05
5.74879e-05
5.52843e-05
5.29958e-05
5.07972e-05
4.8908e-05
4.72482e-05
4.73897e-05
5.11026e-05
5.21653e-05
6.58572e-05
0.000112655
2.27297e-07
0
5.91007e-05
5.84655e-05
5.79294e-05
5.72435e-05
5.65713e-05
5.594e-05
5.53431e-05
5.47975e-05
5.43009e-05
5.38435e-05
5.34001e-05
5.29489e-05
5.24815e-05
5.19846e-05
5.14388e-05
5.08308e-05
5.01407e-05
4.93453e-05
4.84213e-05
4.7341e-05
4.60776e-05
4.45994e-05
4.28793e-05
4.09203e-05
3.87638e-05
3.64526e-05
3.40268e-05
3.1512e-05
2.89356e-05
2.63266e-05
2.371e-05
2.11045e-05
1.85208e-05
1.59568e-05
1.33204e-05
1.06472e-05
7.89259e-06
6.33299e-06
9.92815e-06
5.29075e-05
5.36094e-05
5.43773e-05
5.50848e-05
5.5888e-05
5.67112e-05
5.75035e-05
5.82966e-05
5.90515e-05
5.97534e-05
6.0401e-05
6.09634e-05
6.14406e-05
6.18201e-05
6.209e-05
6.22435e-05
6.22649e-05
6.21466e-05
6.18652e-05
6.14616e-05
6.08627e-05
6.00004e-05
5.89587e-05
5.77781e-05
5.64647e-05
5.49892e-05
5.33489e-05
5.15943e-05
4.97855e-05
4.80822e-05
4.66842e-05
4.55217e-05
4.60224e-05
4.96893e-05
5.00023e-05
6.28075e-05
0.000106492
1.09739e-06
0
5.22353e-05
5.16788e-05
5.12143e-05
5.06202e-05
5.00411e-05
4.95045e-05
4.90044e-05
4.85534e-05
4.81513e-05
4.77875e-05
4.74397e-05
4.70857e-05
4.67189e-05
4.63294e-05
4.59033e-05
4.54255e-05
4.48803e-05
4.42482e-05
4.35115e-05
4.26435e-05
4.16165e-05
4.03984e-05
3.89613e-05
3.73043e-05
3.54599e-05
3.34648e-05
3.13501e-05
2.91378e-05
2.68481e-05
2.45031e-05
2.21247e-05
1.97262e-05
1.73153e-05
1.48825e-05
1.23404e-05
9.67315e-06
6.81748e-06
4.9303e-06
8.1194e-06
4.68099e-05
4.74412e-05
4.81294e-05
4.87649e-05
4.94915e-05
5.02378e-05
5.096e-05
5.16905e-05
5.23895e-05
5.30485e-05
5.36651e-05
5.42138e-05
5.46951e-05
5.50996e-05
5.54178e-05
5.56439e-05
5.57662e-05
5.57791e-05
5.56616e-05
5.54416e-05
5.50652e-05
5.44631e-05
5.3694e-05
5.28019e-05
5.17992e-05
5.06605e-05
4.93853e-05
4.80209e-05
4.66289e-05
4.53529e-05
4.4371e-05
4.36388e-05
4.43998e-05
4.7926e-05
4.78524e-05
5.91435e-05
0.000105649
7.52941e-06
1.32526e-08
4.6212e-05
4.57235e-05
4.53201e-05
4.48033e-05
4.43026e-05
4.3844e-05
4.34224e-05
4.30484e-05
4.27214e-05
4.24309e-05
4.21565e-05
4.18784e-05
4.15914e-05
4.12868e-05
4.09511e-05
4.05745e-05
4.01434e-05
3.96434e-05
3.90559e-05
3.83587e-05
3.75256e-05
3.65264e-05
3.53309e-05
3.39354e-05
3.2364e-05
3.06469e-05
2.88102e-05
2.68706e-05
2.48429e-05
2.27439e-05
2.05902e-05
1.83915e-05
1.61511e-05
1.38559e-05
1.14195e-05
8.78979e-06
5.87446e-06
3.62944e-06
6.55367e-06
4.14517e-05
4.20179e-05
4.26349e-05
4.32045e-05
4.38604e-05
4.4537e-05
4.51924e-05
4.58609e-05
4.65043e-05
4.71177e-05
4.76981e-05
4.82244e-05
4.86964e-05
4.91099e-05
4.94544e-05
4.97275e-05
4.99211e-05
5.00276e-05
5.00337e-05
4.99543e-05
4.97508e-05
4.93542e-05
4.88056e-05
4.81498e-05
4.74073e-05
4.65565e-05
4.55938e-05
4.45665e-05
4.35305e-05
4.26189e-05
4.19932e-05
4.16206e-05
4.25799e-05
4.59922e-05
4.52081e-05
6.08456e-05
9.37713e-05
2.40263e-05
4.89661e-08
4.0919e-05
4.04903e-05
4.01383e-05
3.96875e-05
3.92522e-05
3.88582e-05
3.85e-05
3.8188e-05
3.79203e-05
3.76873e-05
3.74699e-05
3.72506e-05
3.70248e-05
3.67869e-05
3.65225e-05
3.62246e-05
3.58829e-05
3.54861e-05
3.50189e-05
3.44603e-05
3.37859e-05
3.29692e-05
3.19779e-05
3.0806e-05
2.94714e-05
2.79984e-05
2.64081e-05
2.47139e-05
2.29249e-05
2.10539e-05
1.91115e-05
1.71055e-05
1.50332e-05
1.28809e-05
1.0567e-05
8.00836e-06
5.08289e-06
2.43851e-06
5.25114e-06
3.67366e-05
3.72439e-05
3.77953e-05
3.83065e-05
3.88971e-05
3.95076e-05
4.0102e-05
4.07108e-05
4.12998e-05
4.18654e-05
4.24071e-05
4.29043e-05
4.33606e-05
4.37704e-05
4.4126e-05
4.44273e-05
4.46666e-05
4.48389e-05
4.49336e-05
4.49596e-05
4.48885e-05
4.46527e-05
4.42769e-05
4.38132e-05
4.32837e-05
4.26718e-05
4.19726e-05
4.12309e-05
4.0495e-05
3.98919e-05
3.95692e-05
3.94895e-05
4.06092e-05
4.39685e-05
4.27535e-05
6.26142e-05
7.80145e-05
2.47974e-05
5.78499e-08
3.6263e-05
3.58867e-05
3.55777e-05
3.51808e-05
3.48003e-05
3.44604e-05
3.41536e-05
3.38911e-05
3.36705e-05
3.3483e-05
3.33103e-05
3.31364e-05
3.29574e-05
3.27704e-05
3.25619e-05
3.23252e-05
3.20546e-05
3.17405e-05
3.1369e-05
3.09222e-05
3.0379e-05
2.97125e-05
2.88922e-05
2.79105e-05
2.67796e-05
2.55208e-05
2.41484e-05
2.26736e-05
2.11013e-05
1.94397e-05
1.76958e-05
1.58742e-05
1.39676e-05
1.19629e-05
9.78417e-06
7.3324e-06
4.46914e-06
1.38002e-06
4.25069e-06
3.25827e-05
3.30367e-05
3.35283e-05
3.39858e-05
3.45172e-05
3.50673e-05
3.56046e-05
3.61568e-05
3.6694e-05
3.72124e-05
3.77139e-05
3.81791e-05
3.86123e-05
3.90091e-05
3.93643e-05
3.96769e-05
3.99437e-05
4.01598e-05
4.03158e-05
4.04178e-05
4.04459e-05
4.03337e-05
4.00936e-05
3.97809e-05
3.94236e-05
3.90073e-05
3.85257e-05
3.802e-05
3.75338e-05
3.71859e-05
3.71136e-05
3.72721e-05
3.85143e-05
4.18278e-05
4.04922e-05
6.09565e-05
7.10744e-05
2.37085e-05
6.32151e-08
3.21633e-05
3.18322e-05
3.15581e-05
3.12061e-05
3.0872e-05
3.05758e-05
3.03114e-05
3.00888e-05
2.99057e-05
2.97532e-05
2.96145e-05
2.94767e-05
2.93356e-05
2.91865e-05
2.90203e-05
2.88313e-05
2.86173e-05
2.83686e-05
2.80733e-05
2.77166e-05
2.72806e-05
2.67378e-05
2.6061e-05
2.52413e-05
2.42871e-05
2.3213e-05
2.20324e-05
2.07524e-05
1.93757e-05
1.7906e-05
1.63474e-05
1.47017e-05
1.29578e-05
1.11051e-05
9.07657e-06
6.7667e-06
4.04526e-06
5.98248e-07
3.59989e-06
2.89199e-05
2.93242e-05
2.9762e-05
3.01705e-05
3.06481e-05
3.11426e-05
3.16267e-05
3.21268e-05
3.26144e-05
3.30869e-05
3.35474e-05
3.39783e-05
3.43843e-05
3.47624e-05
3.5108e-05
3.54225e-05
3.57017e-05
3.59425e-05
3.61381e-05
3.62928e-05
3.63928e-05
3.6373e-05
3.62367e-05
3.60415e-05
3.58191e-05
3.5559e-05
3.52528e-05
3.49382e-05
3.46559e-05
3.45126e-05
3.46388e-05
3.49914e-05
3.63073e-05
3.95337e-05
3.82162e-05
5.78083e-05
6.742e-05
2.32225e-05
6.92494e-08
2.85492e-05
2.82566e-05
2.80114e-05
2.76968e-05
2.7401e-05
2.71415e-05
2.69117e-05
2.67209e-05
2.65676e-05
2.64425e-05
2.63312e-05
2.62198e-05
2.61069e-05
2.59883e-05
2.58552e-05
2.57041e-05
2.5533e-05
2.53353e-05
2.51016e-05
2.48188e-05
2.44693e-05
2.40287e-05
2.34718e-05
2.27885e-05
2.19855e-05
2.1072e-05
2.00595e-05
1.89525e-05
1.77511e-05
1.64569e-05
1.50708e-05
1.35928e-05
1.2008e-05
1.03105e-05
8.44319e-06
6.30772e-06
3.81197e-06
8.21388e-07
3.31793e-06
2.56858e-05
2.60453e-05
2.64337e-05
2.67978e-05
2.72257e-05
2.76702e-05
2.81054e-05
2.8556e-05
2.89973e-05
2.94259e-05
2.98463e-05
3.02424e-05
3.0619e-05
3.09746e-05
3.13047e-05
3.16111e-05
3.18915e-05
3.21437e-05
3.23631e-05
3.25518e-05
3.27015e-05
3.27486e-05
3.26873e-05
3.25801e-05
3.24609e-05
3.23227e-05
3.2154e-05
3.19908e-05
3.1871e-05
3.18857e-05
3.21604e-05
3.26625e-05
3.39958e-05
3.70847e-05
3.59188e-05
5.37886e-05
6.25369e-05
2.26765e-05
7.42537e-08
2.53578e-05
2.50984e-05
2.48771e-05
2.45946e-05
2.43312e-05
2.41021e-05
2.39011e-05
2.37363e-05
2.36062e-05
2.35022e-05
2.3411e-05
2.33209e-05
2.32298e-05
2.31344e-05
2.30266e-05
2.29051e-05
2.27682e-05
2.26113e-05
2.2427e-05
2.22035e-05
2.1924e-05
2.15678e-05
2.11109e-05
2.05435e-05
1.98685e-05
1.90937e-05
1.82273e-05
1.72728e-05
1.62287e-05
1.50948e-05
1.3869e-05
1.25497e-05
1.11204e-05
9.57977e-06
7.88402e-06
5.94877e-06
3.74207e-06
1.50955e-06
3.34186e-06
2.28255e-05
2.31446e-05
2.34888e-05
2.38134e-05
2.41965e-05
2.45946e-05
2.49854e-05
2.53911e-05
2.57886e-05
2.61761e-05
2.65578e-05
2.69193e-05
2.72656e-05
2.75957e-05
2.79058e-05
2.81988e-05
2.84726e-05
2.87265e-05
2.89563e-05
2.91625e-05
2.93432e-05
2.94362e-05
2.9428e-05
2.93833e-05
2.93397e-05
2.92926e-05
2.92293e-05
2.91816e-05
2.91867e-05
2.93178e-05
2.96985e-05
3.03037e-05
3.16002e-05
3.45165e-05
3.37833e-05
4.74398e-05
6.12102e-05
2.44905e-05
8.79728e-08
2.25349e-05
2.23037e-05
2.21035e-05
2.18485e-05
2.16134e-05
2.14104e-05
2.12331e-05
2.10895e-05
2.09777e-05
2.089e-05
2.08142e-05
2.07399e-05
2.06653e-05
2.05876e-05
2.05e-05
2.04005e-05
2.02912e-05
2.01668e-05
2.00215e-05
1.98453e-05
1.96229e-05
1.93356e-05
1.89625e-05
1.84924e-05
1.79266e-05
1.72707e-05
1.65315e-05
1.57119e-05
1.48091e-05