/*--------------------------------*- C++ -*----------------------------------*\
| =========                 |                                                 |
| \\      /  F ield         | OpenFOAM: The Open Source CFD Toolbox           |
|  \\    /   O peration     | Version:  2312                                  |
|   \\  /    A nd           | Website:  www.openfoam.com                      |
|    \\/     M anipulation  |                                                 |
\*---------------------------------------------------------------------------*/
FoamFile
{
    version     2.0;
    format      ascii;
    arch        "LSB;label=32;scalar=64";
    class       volVectorField;
    location    "50";
    object      momentError;
}
// * * * * * * * * * * * * * * * * * * * * * * * * * * * * * * * * * * * * * //

dimensions      [0 1 -2 0 0 0 0];

internalField   nonuniform List<vector> 
10720
(
(3.00771 -13.17 8.88066e-15)
(1.95805 -13.6087 9.77055e-16)
(0.237194 -11.602 -1.04624e-14)
(-0.591817 -11.3996 1.26357e-14)
(-1.50907 -10.927 1.0395e-14)
(-2.39359 -10.0559 -2.12656e-14)
(-3.19571 -9.14695 -4.93907e-14)
(-3.72821 -8.11873 -4.52617e-14)
(-4.06601 -7.16583 7.5825e-15)
(-4.28652 -6.2711 3.34941e-15)
(-4.37064 -5.40142 -1.32605e-14)
(-4.36432 -4.6248 4.02552e-14)
(-4.25961 -3.88066 -1.37252e-13)
(-4.26787 -3.40076 -2.53841e-13)
(-4.34499 -3.06205 4.72042e-14)
(-4.50979 -2.8399 -7.08666e-14)
(-4.74025 -2.68653 7.52292e-14)
(-5.01282 -2.52152 6.12069e-13)
(-5.30581 -2.34603 1.69126e-13)
(-5.73214 -2.21004 -3.35257e-13)
(-6.44514 -2.20543 -1.54907e-13)
(-7.41675 -2.15934 5.65893e-14)
(-7.36177 -1.91592 2.30534e-13)
(-5.20779 -1.35986 -1.50261e-13)
(-3.05676 -0.615317 2.51493e-14)
(-1.49599 0.0533658 -2.18502e-14)
(-1.55398 0.37582 -3.29384e-14)
(-0.838018 0.362565 6.925e-15)
(-0.758282 0.0409634 7.16066e-15)
(-1.27734 0.0546948 1.03012e-13)
(-1.68633 0.0922387 3.94101e-14)
(-0.123101 -0.220671 -6.9412e-14)
(0.010541 -0.114877 -6.00267e-14)
(-1.99598 0.518447 -1.20066e-13)
(-3.60685 0.746697 2.80416e-14)
(-0.652658 0.00924687 5.91031e-14)
(2.24951 -0.503773 -5.50748e-14)
(7.44334 -0.310351 -1.54837e-14)
(-0.397453 0.910697 2.75341e-14)
(3.71564 -11.7728 2.1492e-14)
(3.6885 -9.12103 -3.68083e-14)
(3.42973 -6.45599 4.34993e-14)
(2.60981 -3.62518 1.33723e-13)
(0.876501 -0.758345 7.62988e-15)
(0.0551074 0.151998 2.48346e-14)
(0.619965 -1.01798 -1.56825e-13)
(1.61379 -2.2313 -1.75135e-13)
(2.22055 -2.42218 -1.65916e-14)
(2.3121 -2.0615 4.22738e-14)
(2.17298 -1.63786 -5.15494e-14)
(1.97344 -1.29965 -1.01789e-13)
(1.79583 -1.07071 2.35916e-14)
(1.67082 -0.917347 4.73524e-14)
(1.57099 -0.796203 -7.51651e-14)
(1.48216 -0.693533 -6.47521e-14)
(1.39927 -0.594051 -4.29367e-14)
(1.29834 -0.493303 -4.82584e-14)
(1.17232 -0.396935 -1.67886e-14)
(1.03584 -0.322295 3.24342e-16)
(0.927186 -0.278991 1.12864e-14)
(0.87479 -0.254604 2.06518e-14)
(0.878107 -0.231834 -4.13116e-15)
(0.897908 -0.214717 -4.84718e-15)
(0.893903 -0.157667 -3.89364e-15)
(0.834306 -0.0599146 -1.82708e-15)
(0.728639 -0.0048455 3.36269e-15)
(0.626762 0.00843601 5.54646e-15)
(0.554178 0.0141004 -1.89339e-15)
(0.599141 -0.00357137 2.8119e-15)
(0.666873 -0.0295961 7.79753e-15)
(0.761431 -0.0459177 -5.71434e-15)
(0.861462 -0.0335323 -2.76768e-15)
(0.943967 0.0159737 -8.08863e-14)
(0.966304 0.0887276 -7.55677e-14)
(0.987678 0.166433 4.69634e-14)
(0.832126 0.262664 -6.27475e-15)
(0.136121 0.0747247 4.74677e-15)
(-0.971193 0.348578 -2.77972e-14)
(-0.120894 -10.0183 -7.72323e-15)
(-1.18402 -10.2123 9.68404e-15)
(-2.19474 -8.85256 -9.64036e-15)
(-3.30451 -8.88388 -1.02319e-15)
(-4.23861 -8.64138 -1.67704e-15)
(-5.04149 -8.12155 1.35156e-14)
(-5.80551 -7.51394 2.1794e-14)
(-6.26677 -6.77451 1.49425e-14)
(-6.49681 -5.99922 -3.8777e-14)
(-6.6356 -5.21652 -7.02545e-15)
(-6.63154 -4.4637 -1.45443e-13)
(-6.50801 -3.7672 -2.53002e-13)
(-6.32046 -3.22068 -1.65817e-14)
(-5.9834 -2.61368 -1.04078e-14)
(-5.66366 -2.14395 -5.86292e-14)
(-5.51143 -1.64599 6.16313e-14)
(-5.52565 -1.15977 2.54261e-13)
(-5.60372 -0.561993 -4.76778e-13)
(-5.75156 0.11322 -3.84115e-13)
(-6.0879 0.791137 -2.48451e-13)
(-7.14543 1.30325 1.51252e-13)
(-9.75089 1.35614 2.07889e-13)
(-14.5087 0.544928 -2.73957e-13)
(-19.0579 -0.628963 4.0616e-14)
(-19.1519 -1.121 -1.23064e-15)
(-15.3829 -0.906876 -3.56985e-14)
(-10.1966 -0.29195 -3.05721e-15)
(-6.75191 0.268913 1.37043e-14)
(-4.36134 0.325141 8.08368e-16)
(-4.28657 0.309169 7.69326e-14)
(-4.1946 0.0942466 -1.68271e-14)
(-0.548411 -0.613075 -5.91964e-14)
(1.29294 -0.224366 -1.13674e-13)
(-6.73911 1.75415 -1.80601e-13)
(-7.35493 1.14367 1.97726e-13)
(1.92788 -0.926488 1.77465e-14)
(6.26319 -1.70601 2.97968e-16)
(8.42556 -1.17844 -3.72728e-14)
(4.57058 1.17006 -1.92849e-15)
(0.651404 -9.15164 -2.32937e-14)
(1.32423 -7.38142 2.10334e-13)
(1.76793 -5.34662 -5.74675e-14)
(1.72991 -3.43945 -1.37658e-13)
(1.03381 -1.61685 -1.3632e-14)
(0.74963 -1.13196 9.43023e-14)
(1.15831 -1.72412 -5.10531e-14)
(1.75478 -2.13995 1.9275e-13)
(2.27464 -1.95034 1.61338e-13)
(2.48605 -1.48547 -8.18505e-14)
(2.46332 -1.03632 5.18787e-14)
(2.32211 -0.715141 -9.00307e-14)
(2.15271 -0.53274 2.9593e-14)
(2.00337 -0.429769 6.30772e-15)
(1.87535 -0.359146 1.28622e-14)
(1.75659 -0.301053 1.22156e-14)
(1.64681 -0.2299 3.07436e-14)
(1.52836 -0.147906 -7.76991e-15)
(1.39182 -0.073918 1.65293e-15)
(1.24537 -0.0389651 -2.81182e-15)
(1.12058 -0.0505093 7.59336e-15)
(1.04405 -0.0895877 2.18057e-14)
(1.02109 -0.108461 -2.76192e-15)
(1.02105 -0.0672947 1.09137e-15)
(0.998366 0.0297613 -1.27546e-15)
(0.928 0.141546 -1.07701e-14)
(0.827583 0.222964 -5.95192e-15)
(0.725655 0.232595 1.34932e-15)
(0.659389 0.151826 5.4457e-17)
(0.593631 0.0392216 2.47938e-16)
(0.613135 -0.0775784 4.94567e-17)
(0.678457 -0.136136 -1.10345e-14)
(0.753803 -0.103126 1.53955e-14)
(0.819046 0.0140062 4.90461e-14)
(0.821352 0.175346 1.17256e-14)
(0.929212 0.330487 -1.72913e-14)
(0.65601 0.409601 7.02721e-15)
(1.02346 0.408378 -1.91444e-14)
(2.09665 1.02722 4.7976e-15)
(0.451491 -8.56758 1.51809e-15)
(-0.232348 -8.71334 1.86444e-14)
(-0.990284 -7.69277 8.74307e-15)
(-1.77382 -7.90937 -2.99658e-14)
(-2.43803 -7.8092 -1.34072e-15)
(-3.12084 -7.48914 -1.32135e-14)
(-3.7992 -7.15461 -8.54965e-15)
(-4.26732 -6.62968 3.45763e-14)
(-4.57326 -5.97996 2.18062e-14)
(-4.79506 -5.31632 4.61015e-14)
(-4.89217 -4.65598 5.6178e-15)
(-4.90822 -4.04767 1.02788e-14)
(-4.84807 -3.51949 1.99155e-13)
(-4.72122 -3.08784 4.65563e-15)
(-4.5966 -2.70451 1.4342e-13)
(-4.4167 -2.38114 -9.64386e-15)
(-4.27481 -2.10481 -4.53666e-13)
(-4.16114 -1.6797 2.80507e-13)
(-3.91857 -1.13905 6.32531e-13)
(-3.37461 -0.537298 1.1597e-13)
(-2.44419 0.182653 -2.08498e-14)
(-1.22546 1.21595 -4.66155e-14)
(-0.93904 2.38133 1.15564e-13)
(-4.01734 2.62844 7.45483e-14)
(-10.0506 1.59005 -6.0502e-14)
(-15.8744 0.13955 -8.21871e-15)
(-18.8027 -0.628081 -3.27611e-14)
(-16.5461 -0.583531 1.43282e-14)
(-11.0404 -0.0957849 -3.9561e-14)
(-7.63317 0.375733 -8.423e-14)
(-5.82623 0.133862 1.69092e-14)
(-2.24735 -0.492754 1.22267e-13)
(-2.18815 0.577867 -7.11969e-15)
(-10.5229 2.59284 1.79772e-13)
(-6.92151 0.49728 1.52138e-14)
(2.52723 -1.68479 6.75447e-14)
(8.45064 -2.49437 -6.01025e-14)
(8.93317 -2.14039 3.48553e-14)
(9.91879 -0.124804 9.92011e-15)
(0.9687 -7.81211 3.55672e-14)
(1.31801 -6.38285 -5.68089e-14)
(1.49247 -4.71543 -8.88205e-14)
(1.41315 -3.29706 1.53201e-14)
(1.06465 -1.95648 -1.72541e-14)
(1.00188 -1.68475 -3.99236e-14)
(1.40869 -2.05217 1.43752e-14)
(1.82637 -2.15706 -2.06563e-13)
(2.13907 -1.99725 -1.15565e-13)
(2.25433 -1.7007 -1.00011e-13)
(2.21685 -1.40946 9.28945e-14)
(2.08706 -1.18374 1.12093e-13)
(1.9287 -1.02391 -5.38676e-14)
(1.78219 -0.898895 -1.1605e-13)
(1.65565 -0.78471 3.36416e-14)
(1.54158 -0.667023 5.13398e-14)
(1.43876 -0.53854 -1.32692e-14)
(1.33829 -0.407508 -5.7277e-14)
(1.23008 -0.298261 -1.5137e-14)
(1.11537 -0.23862 2.07796e-15)
(1.01419 -0.231238 -7.4479e-15)
(0.948266 -0.244746 -1.7786e-14)
(0.923604 -0.227438 3.84249e-15)
(0.918033 -0.145232 -7.82931e-16)
(0.899283 -0.00439961 -4.18742e-15)
(0.842407 0.141635 7.82765e-15)
(0.746713 0.220134 1.39703e-14)
(0.642429 0.198736 -3.93854e-15)
(0.569078 0.0930223 -1.12009e-15)
(0.547424 -0.0735775 -3.7636e-15)
(0.583614 -0.216009 -3.54383e-17)
(0.652834 -0.282746 1.34151e-14)
(0.727711 -0.236488 -1.12658e-14)
(0.789107 -0.0834506 -1.81138e-14)
(0.790514 0.13165 8.13048e-16)
(0.858617 0.338944 1.21932e-15)
(0.615064 0.47089 1.45652e-15)
(0.573984 0.47317 1.20385e-14)
(0.412425 0.687358 -4.88928e-14)
(0.0112802 -7.24816 1.58582e-14)
(-0.675914 -7.33217 1.03678e-14)
(-1.33986 -6.58247 -6.19438e-15)
(-2.09806 -6.81486 3.27348e-15)
(-2.69855 -6.6961 -7.33139e-15)
(-3.31733 -6.41436 -5.22661e-15)
(-3.95124 -6.11787 2.55263e-14)
(-4.39942 -5.62341 -4.04931e-15)
(-4.70986 -5.02602 -8.52952e-14)
(-4.93701 -4.44202 3.01726e-14)
(-5.02917 -3.87759 1.29895e-13)
(-5.04886 -3.36701 1.82565e-13)
(-4.99691 -2.91206 4.12511e-14)
(-4.88404 -2.50102 -2.30751e-13)
(-4.73913 -2.10089 -5.77336e-14)
(-4.55535 -1.72199 -5.72373e-14)
(-4.59964 -1.14789 -1.12401e-13)
(-4.73172 -0.613697 -2.51434e-13)
(-4.83959 -0.0652324 -4.34335e-13)
(-4.85668 0.475877 1.08564e-13)
(-4.68762 1.00829 -8.60371e-14)
(-3.96826 1.69358 -1.22128e-13)
(-1.9526 2.71562 4.74253e-15)
(0.859169 3.71476 -1.72257e-13)
(1.91447 3.83377 -2.81545e-14)
(-0.611175 2.878 2.21721e-14)
(-6.60788 1.28197 3.28846e-14)
(-13.2078 -0.201938 -1.36046e-14)
(-15.3889 -0.630131 1.24807e-14)
(-12.6202 -0.137741 2.89321e-15)
(-8.04998 -0.128976 1.35368e-14)
(-4.50698 -0.281941 4.55174e-14)
(-6.34679 1.50973 7.05472e-14)
(-12.1124 2.94793 9.87708e-15)
(-5.87412 -0.501268 2.10956e-14)
(4.22866 -2.88583 -1.35018e-13)
(10.7778 -3.53938 -5.37716e-14)
(10.3425 -3.06733 -3.18133e-15)
(11.9648 -1.36866 -2.80058e-14)
(0.565355 -6.62365 -7.87535e-15)
(0.963907 -5.52326 -3.79668e-14)
(1.19234 -4.19368 -4.25266e-14)
(1.21141 -3.08925 -7.65327e-14)
(1.06167 -2.17694 1.93707e-13)
(1.11945 -2.01577 1.61491e-13)
(1.47768 -2.21484 2.77192e-14)
(1.79446 -2.18707 1.67965e-13)
(2.03143 -1.99794 -2.52842e-14)
(2.13938 -1.7131 -5.47142e-14)
(2.14304 -1.41888 -5.94527e-14)
(2.0628 -1.15516 -3.29869e-14)
(1.93955 -0.933726 -3.39334e-14)
(1.80918 -0.74862 6.28748e-14)
(1.68486 -0.588743 -3.48235e-14)
(1.56451 -0.446108 -9.08016e-14)
(1.45361 -0.318992 -1.49185e-14)
(1.34888 -0.2109 5.399e-14)
(1.24494 -0.133244 -3.2147e-15)
(1.13885 -0.0977096 -1.37525e-14)
(1.04132 -0.0990176 -3.34449e-14)
(0.966637 -0.109517 1.19008e-14)
(0.922167 -0.0896399 1.41127e-14)
(0.895829 -0.0174406 -3.3206e-15)
(0.865927 0.0935771 3.24119e-17)
(0.812482 0.195479 -3.38697e-15)
(0.730261 0.230861 -6.27324e-15)
(0.639313 0.174673 2.26361e-15)
(0.568557 0.0385824 1.98134e-15)
(0.539798 -0.123071 1.18353e-15)
(0.559185 -0.249088 -3.8482e-15)
(0.607202 -0.294836 -7.38508e-15)
(0.661538 -0.228453 -3.56685e-15)
(0.707171 -0.0641264 9.73421e-15)
(0.702154 0.162796 2.08887e-14)
(0.759931 0.36295 -1.83117e-14)
(0.585491 0.541803 -1.5771e-16)
(0.496481 0.498469 2.49145e-14)
(-0.0496417 0.599374 -2.83789e-14)
(-0.093192 -6.25054 -1.37514e-14)
(-0.674938 -6.31269 1.39946e-14)
(-1.21744 -5.7542 -1.47086e-14)
(-1.88303 -6.00518 2.00217e-14)
(-2.3983 -5.90887 3.25383e-14)
(-2.92869 -5.67811 -1.86331e-14)
(-3.48529 -5.461 -1.16697e-14)
(-3.86948 -5.06348 1.7016e-14)
(-4.15391 -4.59591 -3.73204e-14)
(-4.36927 -4.14217 -1.22429e-13)
(-4.46976 -3.68487 -6.80071e-15)
(-4.51567 -3.24577 -7.51684e-14)
(-4.50968 -2.81818 -4.03705e-14)
(-4.44687 -2.38958 -1.3289e-14)
(-4.33937 -1.96244 -1.97068e-13)
(-4.21355 -1.52389 1.94011e-13)
(-4.05031 -1.14831 1.08706e-13)
(-4.02515 -0.840877 -2.48091e-13)
(-4.03636 -0.52354 8.42202e-14)
(-4.02678 -0.199115 -1.36674e-13)
(-4.00425 0.127214 -9.667e-14)
(-3.95025 0.489931 1.72031e-13)
(-3.54538 1.03491 4.01769e-16)
(-1.97872 1.83387 1.443e-13)
(0.685347 2.5793 6.40778e-14)
(3.15006 2.91417 -6.36627e-15)
(3.40155 2.45858 4.55876e-15)
(-0.199692 1.11448 1.53037e-14)
(-6.72672 -0.140181 -8.97769e-15)
(-12.0993 -0.485274 -2.43625e-14)
(-10.9659 -0.532191 -2.19055e-14)
(-8.05267 -0.0629507 -1.79501e-14)
(-10.2182 2.28275 1.01774e-14)
(-12.2857 2.85093 -1.23191e-13)
(-3.93532 -1.7664 -6.74861e-14)
(5.86134 -4.07311 8.626e-15)
(12.2548 -4.34573 4.411e-14)
(11.3416 -3.86378 -2.32809e-14)
(12.5708 -1.99433 1.26916e-14)
(0.393643 -5.72141 2.38571e-14)
(0.741739 -4.83959 4.18285e-14)
(0.962157 -3.76593 -1.82208e-14)
(1.02698 -2.88869 -5.73786e-14)
(0.999246 -2.2718 -8.76359e-15)
(1.13674 -2.16575 -9.10034e-14)
(1.44846 -2.2371 -7.19306e-14)
(1.7201 -2.15313 1.01487e-13)
(1.91822 -1.95658 1.85327e-13)
(2.01738 -1.69065 1.48486e-14)
(2.03929 -1.41764 -4.21576e-14)
(1.98764 -1.1642 -4.26344e-14)
(1.88513 -0.942542 1.046e-13)
(1.7655 -0.756521 -3.46456e-14)
(1.64448 -0.601328 -9.02717e-15)
(1.52181 -0.470105 6.68656e-14)
(1.40835 -0.361682 -3.04744e-14)
(1.30332 -0.27381 2.41278e-14)
(1.20546 -0.206417 1.69486e-14)
(1.10936 -0.161041 9.28125e-16)
(1.01915 -0.134264 3.57322e-14)
(0.943103 -0.11313 -1.1646e-14)
(0.888413 -0.0779358 -1.6267e-14)
(0.850044 -0.0178535 -4.00749e-15)
(0.815991 0.0587439 3.48178e-15)
(0.770984 0.122403 -1.97998e-15)
(0.705927 0.134786 -3.73138e-15)
(0.632121 0.0791728 6.91034e-16)
(0.570792 -0.0314222 -7.61617e-16)
(0.54101 -0.150608 1.88401e-15)
(0.545473 -0.250379 3.37337e-15)
(0.577579 -0.27177 3.80736e-15)
(0.615341 -0.199133 -7.45734e-15)
(0.648106 -0.0437579 -2.88934e-14)
(0.633183 0.155684 -9.58742e-15)
(0.684226 0.333285 -6.90863e-15)
(0.517334 0.498226 -1.25926e-14)
(0.435987 0.439358 -4.83744e-15)
(-0.0261615 0.635169 2.93049e-14)
(-0.223112 -5.42572 1.09629e-16)
(-0.738139 -5.47442 3.91702e-16)
(-1.20455 -5.04835 6.12536e-16)
(-1.80673 -5.28231 2.88739e-15)
(-2.26639 -5.19565 -1.25964e-14)
(-2.73305 -4.99969 -1.52981e-14)
(-3.22548 -4.82833 1.60466e-15)
(-3.56779 -4.5027 1.29628e-14)
(-3.83576 -4.11813 5.02224e-14)
(-4.05242 -3.73839 -3.89633e-14)
(-4.16811 -3.33629 -4.25128e-14)
(-4.23141 -2.93396 3.31108e-14)
(-4.24702 -2.53454 -7.29238e-14)
(-4.19708 -2.13047 -3.44803e-15)
(-4.10049 -1.73496 -2.5565e-14)
(-3.96776 -1.35966 1.48634e-14)
(-3.79634 -1.02935 2.8355e-14)
(-3.81315 -0.62154 2.95796e-13)
(-3.90229 -0.244335 2.40784e-13)
(-3.9497 0.155019 -1.06894e-13)
(-3.93023 0.583966 1.55508e-13)
(-3.81434 1.01754 1.13279e-14)
(-3.63081 1.41829 -3.36409e-14)
(-3.19003 1.75245 -7.10614e-14)
(-2.10475 1.99099 6.66319e-15)
(-0.177307 2.16211 2.25206e-14)
(2.1916 2.10931 2.57869e-14)
(3.43692 1.51798 -2.42761e-14)
(2.03771 0.620643 -1.95641e-15)
(-3.23497 -0.125231 4.61442e-14)
(-8.78889 -0.61896 -2.50583e-14)
(-11.1758 0.0999436 -1.21251e-13)
(-14.0542 2.6548 -4.30136e-14)
(-12.0397 2.31237 -1.19107e-13)
(-1.83557 -3.02789 2.35366e-14)
(7.15763 -5.03837 -5.70947e-14)
(13.0241 -4.85375 4.98594e-14)
(11.7627 -4.39494 2.83838e-14)
(12.2501 -2.29134 -7.0739e-15)
(0.218788 -4.97713 -9.21093e-15)
(0.543662 -4.26155 -2.61353e-14)
(0.763957 -3.38658 -2.68981e-15)
(0.862329 -2.67604 5.42781e-14)
(0.917983 -2.25768 1.05369e-13)
(1.10061 -2.19207 -2.07088e-13)
(1.37446 -2.1933 -1.55803e-13)
(1.61539 -2.08353 -1.08623e-13)
(1.79239 -1.89118 6.32639e-14)
(1.8885 -1.64669 2.25453e-14)
(1.9238 -1.39681 -6.37143e-14)
(1.89629 -1.15977 3.70626e-15)
(1.81616 -0.944851 -2.1922e-14)
(1.7136 -0.760416 -3.39373e-14)
(1.60371 -0.605661 -1.14404e-13)
(1.48809 -0.475178 -1.21566e-14)
(1.37831 -0.367778 6.24773e-14)
(1.27626 -0.278917 -9.78859e-15)
(1.18227 -0.204772 1.20116e-14)
(1.09198 -0.14473 -1.87226e-14)
(1.00618 -0.100092 -2.60808e-14)
(0.929311 -0.0688819 -3.26646e-16)
(0.86748 -0.0430999 5.43318e-15)
(0.82012 -0.0134354 5.33891e-15)
(0.781569 0.0226892 -2.33228e-15)
(0.741076 0.0541724 3.5235e-15)
(0.687188 0.0586878 5.95354e-15)
(0.624352 0.0231748 -1.18213e-15)
(0.568251 -0.0453447 8.09442e-16)
(0.534362 -0.124047 -1.84698e-15)
(0.529174 -0.166838 -3.21558e-15)
(0.553059 -0.160763 -3.56586e-15)
(0.585494 -0.0843349 6.65336e-15)
(0.617533 0.0479871 2.62429e-14)
(0.612233 0.216616 8.1441e-15)
(0.667638 0.340718 9.6338e-15)
(0.519899 0.492433 7.50664e-16)
(0.438807 0.354187 -1.65834e-14)
(0.0841321 0.48418 -7.27197e-15)
(-0.318802 -4.73193 -1.38081e-16)
(-0.768971 -4.77013 -1.09428e-15)
(-1.17406 -4.44426 -7.97628e-15)
(-1.71597 -4.66052 4.67054e-15)
(-2.12434 -4.58357 2.49963e-14)
(-2.53831 -4.42155 8.29012e-15)
(-2.97848 -4.28747 -1.14014e-16)
(-3.28684 -4.01475 -1.09669e-14)
(-3.53898 -3.69354 2.56862e-14)
(-3.75257 -3.37215 4.31846e-14)
(-3.87262 -3.01971 2.42839e-15)
(-3.9432 -2.66101 1.33394e-14)
(-3.96609 -2.30141 1.06798e-13)
(-3.92423 -1.93465 2.11611e-13)
(-3.83828 -1.57294 1.9176e-13)
(-3.7145 -1.22884 -2.96459e-15)
(-3.56678 -0.88689 2.54571e-13)
(-3.45102 -0.614117 8.09662e-15)
(-3.50926 -0.340616 -7.89478e-14)
(-3.54153 -0.0348423 1.0764e-13)
(-3.52062 0.346151 -1.77246e-13)
(-3.38906 0.80762 7.50968e-14)
(-3.12794 1.31142 7.03502e-14)
(-2.78908 1.71321 3.12245e-14)
(-2.41345 1.84625 7.77096e-14)
(-1.85279 1.76629 -3.08029e-14)
(-0.750921 1.55542 -2.82511e-14)
(0.755676 1.12375 1.74919e-15)
(2.08346 0.637497 2.46655e-14)
(1.9364 0.24362 -5.25253e-14)
(-1.57763 -0.212506 -4.67805e-14)
(-8.6946 0.363123 6.2222e-14)
(-15.7917 2.57454 2.32508e-15)
(-11.8744 1.37783 -1.30245e-14)
(0.0451199 -4.23534 3.89628e-14)
(8.06625 -5.75185 3.65946e-14)
(13.0912 -5.04946 -2.45136e-14)
(11.5813 -4.62227 -3.06235e-14)
(11.3385 -2.32957 2.23856e-14)
(0.0790795 -4.35451 -5.3172e-15)
(0.381199 -3.76573 -1.76447e-15)
(0.596715 -3.04439 1.03455e-14)
(0.718228 -2.45777 5.53589e-14)
(0.82251 -2.17201 4.0575e-14)
(1.02957 -2.13877 3.26958e-14)
(1.27907 -2.10106 1.25325e-13)
(1.49991 -1.98233 -1.04281e-13)
(1.66509 -1.80135 -1.57604e-13)
(1.7616 -1.57876 3.38916e-14)
(1.80914 -1.35262 8.61186e-14)
(1.80092 -1.13388 -1.62997e-14)
(1.74162 -0.930229 4.97063e-14)
(1.65751 -0.751564 9.2461e-16)
(1.5609 -0.598843 2.5894e-14)
(1.45423 -0.468014 1.58447e-14)
(1.35047 -0.358845 -2.44772e-14)
(1.2518 -0.267424 2.23099e-14)
(1.15995 -0.190488 -1.59889e-14)
(1.07274 -0.127408 -2.35801e-16)
(0.990578 -0.0808188 3.51048e-14)
(0.914925 -0.0519034 -1.14181e-14)
(0.850314 -0.0357529 -1.34839e-14)
(0.797599 -0.0218849 2.65453e-15)
(0.755517 -0.00126571 5.37547e-16)
(0.716593 0.0248189 -1.53733e-15)
(0.669061 0.042246 -2.37555e-15)
(0.613174 0.0372267 4.37003e-16)
(0.560295 0.00733316 5.74243e-16)
(0.524159 -0.0338592 -2.56986e-16)
(0.510048 -0.0672261 -7.60376e-15)
(0.526555 -0.0722358 3.96481e-16)
(0.554666 -0.0293689 1.09718e-14)
(0.586623 0.0546443 -9.61646e-16)
(0.590244 0.165767 -6.37672e-16)
(0.654347 0.252157 -6.48141e-16)
(0.518326 0.363061 3.74625e-15)
(0.46541 0.227702 1.47901e-14)
(0.211529 0.333365 -3.80743e-14)
(-0.39969 -4.13868 4.93419e-15)
(-0.792791 -4.16798 -4.80207e-15)
(-1.14471 -3.91493 1.05522e-14)
(-1.63276 -4.11119 -3.62462e-14)
(-1.99915 -4.04661 2.12204e-14)
(-2.36947 -3.9086 3.88793e-15)
(-2.76899 -3.80149 4.52432e-15)
(-3.05183 -3.5719 -2.99104e-14)
(-3.28864 -3.29936 8.99192e-15)
(-3.49699 -3.02763 4.97464e-14)
(-3.61812 -2.72046 -1.58038e-14)
(-3.69349 -2.40224 -7.02577e-14)
(-3.72224 -2.07807 -1.51709e-13)
(-3.68889 -1.74197 -1.42383e-13)
(-3.61382 -1.40624 -9.96392e-14)
(-3.50147 -1.07909 -4.15866e-14)
(-3.35821 -0.767878 -1.43472e-13)
(-3.22058 -0.455914 -2.00694e-13)
(-3.28539 -0.137962 -9.75707e-14)
(-3.33721 0.194272 2.41724e-13)
(-3.32975 0.574392 2.22791e-13)
(-3.20546 0.991394 -1.2592e-14)
(-2.91981 1.40731 -3.51651e-14)
(-2.48199 1.72345 -1.01941e-13)
(-2.04866 1.78957 -6.0328e-14)
(-1.7839 1.60553 2.5579e-14)
(-1.55802 1.26001 2.14343e-14)
(-1.11804 0.771528 3.76811e-15)
(-0.361042 0.329054 -1.26329e-14)
(0.689573 0.116783 4.42786e-14)
(1.84677 0.10232 1.07589e-13)
(-1.27271 0.809633 2.5651e-14)
(-11.7083 2.22429 3.51619e-15)
(-10.9271 0.194002 3.07741e-14)
(1.28794 -5.33647 -5.94028e-14)
(8.49228 -6.2465 2.766e-14)
(12.4324 -4.97841 1.23295e-14)
(10.7999 -4.56312 -1.31677e-14)
(9.91204 -2.14203 -4.93474e-15)
(-0.0363378 -3.81583 1.84044e-14)
(0.24502 -3.32983 2.46148e-14)
(0.458583 -2.72995 -6.38641e-15)
(0.595274 -2.23804 1.51997e-13)
(0.724804 -2.04657 -1.8919e-13)
(0.945381 -2.04106 5.35514e-14)
(1.17544 -1.98131 1.44194e-13)
(1.38241 -1.86364 1.009e-13)
(1.53997 -1.6975 -2.40027e-14)
(1.63688 -1.49637 -3.08909e-14)
(1.69425 -1.29382 2.48627e-14)
(1.70232 -1.09541 3.03304e-14)
(1.66161 -0.906295 -6.72559e-14)
(1.59527 -0.737169 5.87248e-14)
(1.51239 -0.589636 1.16254e-14)
(1.41614 -0.461435 -1.23668e-14)
(1.31987 -0.353436 -4.22835e-14)
(1.22559 -0.263207 -4.20794e-14)
(1.13646 -0.188388 3.19958e-14)
(1.05198 -0.128011 9.66742e-15)
(0.973188 -0.0831228 3.28827e-15)
(0.899957 -0.0542872 2.60707e-14)
(0.834828 -0.0375133 8.7344e-15)
(0.778701 -0.0239006 -1.07484e-15)
(0.733302 -0.00427598 6.75214e-16)
(0.693723 0.0230404 4.25959e-16)
(0.649425 0.0480927 6.97184e-16)
(0.598667 0.0572107 1.87506e-16)
(0.549525 0.0432359 6.77725e-16)
(0.513686 0.0124773 1.44411e-15)
(0.497206 -0.0213644 6.52957e-15)
(0.509594 -0.0332256 -6.70071e-15)
(0.536662 -0.012304 -2.29867e-14)
(0.569898 0.0412527 -1.8026e-14)
(0.582073 0.123102 -1.00442e-14)
(0.649965 0.177925 3.54598e-15)
(0.524322 0.287407 -4.90074e-15)
(0.49602 0.115775 -6.06714e-15)
(0.335536 0.0768819 2.1934e-14)
(-0.457485 -3.61926 8.31112e-16)
(-0.804082 -3.64816 2.53032e-15)
(-1.11253 -3.45281 -1.69283e-15)
(-1.55161 -3.62791 -1.53852e-14)
(-1.88058 -3.57342 -2.88569e-14)
(-2.21245 -3.45616 1.91026e-14)
(-2.5757 -3.37115 -1.01563e-14)
(-2.83501 -3.17689 1.10888e-14)
(-3.05691 -2.94671 -1.47149e-14)
(-3.25814 -2.7167 -1.38187e-14)
(-3.37847 -2.44833 4.91303e-15)
(-3.45692 -2.1643 8.71613e-14)
(-3.49153 -1.86948 1.2231e-13)
(-3.4652 -1.55908 2.24989e-14)
(-3.39897 -1.24597 8.7753e-15)
(-3.29484 -0.939756 1.0923e-14)
(-3.16186 -0.644899 -2.82899e-14)
(-3.00786 -0.359576 8.53448e-14)
(-3.01225 -0.0946394 7.71867e-14)
(-3.05414 0.184495 -1.83583e-13)
(-3.04885 0.509991 -1.88258e-14)
(-2.94468 0.878555 3.79074e-14)
(-2.70897 1.2396 -5.15717e-14)
(-2.32164 1.50269 4.54533e-14)
(-1.8622 1.554 1.00456e-15)
(-1.51248 1.38737 -7.73681e-15)
(-1.37335 1.0606 -2.80557e-14)
(-1.3638 0.617319 2.63999e-15)
(-1.28596 0.20589 -1.1735e-15)
(-1.2567 -0.0699895 4.86749e-14)
(0.154345 0.0492489 9.12997e-15)
(3.16598 1.10089 -5.6243e-14)
(-3.08812 1.90406 1.65878e-14)
(-7.50105 -0.933737 1.03237e-13)
(1.76021 -6.14187 1.26433e-14)
(8.18314 -6.50065 1.86319e-14)
(11.0594 -4.68818 -2.30153e-14)
(9.44897 -4.25964 3.558e-14)
(8.04854 -1.75023 1.38107e-14)
(-0.128071 -3.34709 5.87685e-15)
(0.135813 -2.94352 -5.56919e-14)
(0.347757 -2.44045 8.19215e-16)
(0.494892 -2.04412 4.10422e-14)
(0.638139 -1.91088 5.05335e-14)
(0.858337 -1.91401 -2.65254e-14)
(1.07217 -1.84542 -9.64948e-15)
(1.26744 -1.73395 -8.75682e-15)
(1.41909 -1.58391 -1.84827e-14)
(1.51717 -1.40444 2.10937e-15)
(1.58222 -1.22443 2.50829e-14)
(1.60353 -1.04661 5.12237e-14)
(1.57928 -0.873917 4.06432e-15)
(1.52963 -0.716639 -1.16937e-13)
(1.46024 -0.576439 1.94062e-14)
(1.37527 -0.452732 5.56592e-14)
(1.28768 -0.347317 4.06738e-14)
(1.19885 -0.258486 1.87802e-14)
(1.11361 -0.184844 -1.2135e-14)
(1.03239 -0.125069 -2.0804e-15)
(0.95671 -0.0789199 -1.20514e-14)
(0.88579 -0.0462195 -2.1866e-14)
(0.820825 -0.0245292 8.13125e-15)
(0.762415 -0.00788161 7.62173e-15)
(0.713983 0.0109167 5.57882e-16)
(0.672989 0.0347971 1.20795e-15)
(0.630554 0.0572588 -1.08732e-15)
(0.584072 0.0671318 -2.76948e-16)
(0.539204 0.0566501 -1.07664e-15)
(0.505381 0.0280752 -1.98501e-15)
(0.488473 -0.0050474 4.62041e-15)
(0.496623 -0.0317303 5.35171e-15)
(0.522458 -0.03203 8.52541e-15)
(0.555307 -0.00298943 6.86703e-15)
(0.573124 0.0551328 -1.3008e-14)
(0.641169 0.100884 1.69365e-15)
(0.525399 0.203857 8.7599e-16)
(0.518654 0.0629067 -3.44719e-15)
(0.445966 -0.0642484 4.58105e-15)
(-0.500073 -3.16883 3.38554e-15)
(-0.804911 -3.19298 -4.34614e-16)
(-1.07778 -3.04238 -1.29332e-14)
(-1.47377 -3.19815 5.45099e-15)
(-1.77179 -3.15406 4.06477e-15)
(-2.07161 -3.05379 3.72018e-15)
(-2.4033 -2.98389 6.957e-15)
(-2.64247 -2.81865 -8.41123e-16)
(-2.85195 -2.62254 2.63856e-15)
(-3.04435 -2.42465 1.64376e-14)
(-3.16283 -2.18828 3.38806e-14)
(-3.24365 -1.93398 3.45354e-14)
(-3.2813 -1.66581 -7.68516e-14)
(-3.2598 -1.38121 -1.32413e-13)
(-3.20087 -1.09385 2.12861e-14)
(-3.10291 -0.811989 1.83832e-13)
(-2.97673 -0.541316 4.17973e-14)
(-2.82533 -0.284449 -1.11205e-13)
(-2.78032 -0.0252494 -2.04754e-14)
(-2.82397 0.239586 2.07054e-14)
(-2.82341 0.525857 -4.64688e-14)
(-2.73356 0.837623 -6.15919e-14)
(-2.53231 1.12717 1.00597e-14)
(-2.21027 1.3201 4.98084e-14)
(-1.81075 1.33618 3.96146e-14)
(-1.44488 1.18824 -4.42189e-15)
(-1.21716 0.923602 2.34977e-14)
(-1.1831 0.582123 4.79545e-15)
(-1.17862 0.28963 4.17258e-14)
(-1.55943 -0.016643 -4.35529e-14)
(-1.94043 -0.0360804 -1.03556e-13)
(1.98525 1.07706 -5.42321e-14)
(3.38919 1.7627 3.71287e-14)
(-2.12188 -1.59884 4.21708e-14)
(1.63617 -6.41079 -5.29784e-14)
(6.804 -6.37603 -4.27565e-14)
(8.87237 -4.15141 2.75474e-14)
(7.58958 -3.71593 9.8179e-15)
(5.8293 -1.1475 -2.49436e-14)
(-0.199807 -2.93594 -8.93434e-15)
(0.0486123 -2.59865 -9.86884e-15)
(0.255432 -2.17952 -9.34317e-15)
(0.41056 -1.87882 -4.14544e-14)
(0.565126 -1.78405 3.58903e-14)
(0.772919 -1.77297 -2.83921e-14)
(0.973791 -1.70279 -2.62466e-14)
(1.15829 -1.59949 5.86611e-14)
(1.30453 -1.4652 -1.94822e-14)
(1.40308 -1.30591 6.02271e-14)
(1.47455 -1.14768 6.41141e-14)
(1.50651 -0.989655 4.47617e-14)
(1.49601 -0.833699 2.13408e-14)
(1.46143 -0.689374 3.95281e-14)
(1.40568 -0.558218 -1.12966e-14)
(1.33192 -0.440213 4.7868e-15)
(1.25341 -0.338305 2.76766e-14)
(1.17111 -0.251357 1.88621e-14)
(1.09044 -0.178697 -2.13762e-15)
(1.01268 -0.119222 -3.77022e-14)
(0.939843 -0.0723682 -8.42475e-15)
(0.870987 -0.0376471 2.80166e-16)
(0.806623 -0.0136534 -1.76024e-14)
(0.7469 0.00336686 1.91342e-15)
(0.696564 0.0191031 -4.82193e-16)
(0.654465 0.0371738 -1.98842e-15)
(0.6134 0.0541251 2.99602e-16)
(0.570579 0.0619054 3.51338e-17)
(0.529691 0.0534411 -7.63881e-17)
(0.498076 0.0300437 1.64938e-15)
(0.481031 -0.000249193 -4.02981e-15)
(0.485029 -0.0233382 -9.85603e-15)
(0.508737 -0.0252108 6.7947e-15)
(0.539612 -0.000503443 1.70461e-14)
(0.560291 0.052944 7.87087e-15)
(0.625476 0.0954535 -4.16274e-15)
(0.518141 0.201328 5.41236e-15)
(0.531838 0.0681791 1.44617e-14)
(0.53558 -0.125017 7.377e-15)
(-0.529107 -2.77345 -3.54683e-15)
(-0.799018 -2.79763 1.33684e-15)
(-1.04086 -2.6809 1.13037e-14)
(-1.39855 -2.81753 1.94807e-14)
(-1.66772 -2.77872 -9.15466e-15)
(-1.93967 -2.6934 -1.40741e-15)
(-2.24318 -2.63642 9.70158e-15)
(-2.46408 -2.49525 -6.51334e-15)
(-2.66102 -2.32801 -1.18457e-14)
(-2.8444 -2.15775 -7.80667e-15)
(-2.95893 -1.94895 -3.38518e-14)
(-3.04073 -1.72224 -8.05866e-15)
(-3.08032 -1.4798 7.16195e-14)
(-3.06318 -1.22065 3.68314e-14)
(-3.01032 -0.958448 -4.01141e-15)
(-2.91878 -0.700519 -1.44199e-13)
(-2.79971 -0.452932 -4.05659e-14)
(-2.65585 -0.214599 1.38046e-13)
(-2.55869 0.0137345 6.79978e-14)
(-2.59984 0.250164 -3.25533e-14)
(-2.60364 0.496847 -4.71709e-15)
(-2.53123 0.766928 3.29267e-14)
(-2.36498 1.02015 8.34074e-15)
(-2.09941 1.19048 -6.10105e-14)
(-1.76772 1.20873 -1.01075e-13)
(-1.44969 1.09232 3.376e-14)
(-1.20319 0.892352 -4.90509e-15)
(-1.10533 0.635151 -5.88407e-15)
(-1.01981 0.452342 -1.95201e-14)
(-1.11381 0.218881 -3.10277e-14)
(-2.26744 0.0545211 2.74292e-14)
(-0.679825 0.975379 1.23917e-13)
(4.03162 1.63297 1.21956e-14)
(1.52439 -1.72489 -8.65931e-14)
(0.686788 -6.05428 2.25731e-14)
(4.05061 -5.76718 -1.63721e-14)
(6.10818 -3.44112 2.56741e-14)
(5.12399 -2.91264 -1.48082e-14)
(3.44573 -0.344254 7.62594e-16)
(-0.253064 -2.57559 9.21459e-15)
(-0.0208676 -2.2953 3.86142e-14)
(0.179757 -1.94529 -7.79479e-14)
(0.337893 -1.71707 -1.83816e-15)
(0.497671 -1.64911 -1.23895e-13)
(0.692818 -1.62849 1.18819e-15)
(0.881642 -1.55903 2.98039e-14)
(1.05635 -1.46425 -1.11014e-13)
(1.19728 -1.34515 1.637e-14)
(1.29558 -1.20443 -1.7237e-14)
(1.37123 -1.0659 -4.43996e-14)
(1.4121 -0.927075 -6.49771e-14)
(1.41336 -0.787739 -7.84061e-17)
(1.39214 -0.656903 4.23119e-14)
(1.34899 -0.535683 2.25234e-14)
(1.28627 -0.424749 -1.84191e-14)
(1.2169 -0.327433 -2.51342e-14)
(1.1418 -0.243347 -4.86079e-15)
(1.06641 -0.172414 1.0976e-14)
(0.992393 -0.113957 3.09664e-14)
(0.922374 -0.0673051 2.95966e-14)
(0.855623 -0.0319009 2.29409e-14)
(0.791991 -0.00675274 -3.0551e-16)
(0.732033 0.0106137 -1.86809e-14)
(0.680784 0.0248339 1.8339e-15)
(0.638006 0.0395663 -3.05154e-15)
(0.597835 0.0534528 -1.42328e-16)
(0.557715 0.0609327 5.70572e-16)
(0.520002 0.0561411 1.7252e-16)
(0.490386 0.0390285 -2.38214e-15)
(0.473146 0.0163531 2.0624e-15)
(0.472715 -0.00428833 9.31672e-15)
(0.494359 -0.00808873 -8.4367e-15)
(0.523101 0.0113271 -5.62726e-15)
(0.546146 0.0563674 9.97523e-15)
(0.608133 0.0953897 8.45835e-16)
(0.511346 0.193688 -2.3881e-15)
(0.543664 0.076185 -4.0077e-15)
(0.60935 -0.120566 -3.96511e-14)
(-0.5451 -2.43047 -1.02143e-15)
(-0.785682 -2.45081 1.0695e-15)
(-1.00169 -2.36019 -1.75092e-15)
(-1.32598 -2.47921 -8.9543e-15)
(-1.57085 -2.44587 1.14575e-14)
(-1.81776 -2.37144 -2.27802e-15)
(-2.09479 -2.32252 -1.2759e-15)
(-2.29975 -2.20258 2.7295e-15)
(-2.48439 -2.05843 -5.18485e-15)
(-2.65872 -1.91032 -3.89251e-14)
(-2.76934 -1.72538 -2.43196e-14)
(-2.85006 -1.52224 -4.14867e-14)
(-2.89094 -1.30327 -2.77478e-14)
(-2.87858 -1.06826 -5.19357e-14)
(-2.83118 -0.829239 -6.22509e-14)
(-2.74672 -0.593365 5.66476e-14)
(-2.63446 -0.366524 -1.16393e-14)
(-2.49838 -0.14896 -1.04558e-13)
(-2.36001 0.0601673 -4.60349e-14)
(-2.40124 0.282741 -3.67426e-14)
(-2.41014 0.501395 -2.25834e-14)
(-2.35334 0.735262 7.00008e-14)
(-2.21712 0.956463 -8.80794e-15)
(-1.99685 1.11297 -2.32008e-14)
(-1.71548 1.1459 5.44199e-15)
(-1.44256 1.06632 -3.01714e-14)
(-1.2174 0.923456 -3.64268e-14)
(-1.0973 0.727954 3.57465e-15)
(-1.01955 0.59507 -8.55828e-15)
(-0.840688 0.460543 2.8538e-14)
(-1.61985 0.258738 1.1617e-14)
(-1.87244 0.912319 -4.57995e-14)
(2.07325 1.43171 -1.31339e-13)
(2.32524 -1.57955 5.25646e-14)
(-1.15804 -5.26031 2.48616e-14)
(-0.271615 -4.76792 7.91467e-14)
(2.57149 -2.63145 8.48475e-14)
(2.73624 -2.07892 3.39897e-14)
(0.8553 0.574631 -7.23662e-15)
(-0.291629 -2.26292 1.92678e-14)
(-0.0732203 -2.02887 -1.55932e-14)