/*--------------------------------*- C++ -*----------------------------------*\
| =========                 |                                                 |
| \\      /  F ield         | OpenFOAM: The Open Source CFD Toolbox           |
|  \\    /   O peration     | Version:  2312                                  |
|   \\  /    A nd           | Website:  www.openfoam.com                      |
|    \\/     M anipulation  |                                                 |
\*---------------------------------------------------------------------------*/
FoamFile
{
    version     2.0;
    format      ascii;
    arch        "LSB;label=32;scalar=64";
    class       volScalarField;
    location    "50";
    object      nut;
}
// * * * * * * * * * * * * * * * * * * * * * * * * * * * * * * * * * * * * * //

dimensions      [0 2 -1 0 0 0 0];

internalField   nonuniform List<scalar> 
10720
(
1.62384e-05
1.87136e-05
2.2052e-05
2.64298e-05
3.22349e-05
3.99441e-05
5.02605e-05
6.36473e-05
8.09661e-05
0.000102956
0.000130642
0.000166197
0.00021272
0.000276699
0.000366276
0.000496816
0.000693997
0.00100934
0.0015311
0.00245655
0.00422194
0.00817205
0.0162854
0.0487546
0.0651478
0.0611743
0.0593577
0.0540853
0.0500966
0.0485985
0.0448433
0.0405851
0.0459597
0.0309222
0.0321825
0.038816
0.0404075
0.038944
0.0411881
1.41588e-05
1.23523e-05
1.06134e-05
9.01287e-06
7.60696e-06
6.67063e-06
8.05375e-06
1.04479e-05
1.41689e-05
1.99535e-05
2.89459e-05
4.26235e-05
6.24242e-05
8.97206e-05
0.000125832
0.000173923
0.00024052
0.000337643
0.000487978
0.000728543
0.00113446
0.0018459
0.00322039
0.00567366
0.011304
0.0226648
0.0503022
0.0862946
0.107963
0.115682
0.117809
0.118397
0.118262
0.117542
0.116326
0.11475
0.112436
0.109559
0.100243
5.51176e-06
5.41036e-06
5.31123e-06
5.21661e-06
5.10749e-06
4.99702e-06
4.89391e-06
4.78722e-06
4.69334e-06
4.61175e-06
4.54301e-06
4.50012e-06
4.53291e-06
4.48887e-06
5.48451e-06
9.15986e-06
2.37182e-05
7.06877e-05
0.000165308
0.000356236
0.000738231
0.00201903
0.00403794
0.0158534
0.0388813
0.0712815
0.112021
0.149024
0.176136
0.192642
0.200169
0.197778
0.1813
0.141212
0.159502
0.189493
0.201052
0.200564
0.179153
5.59193e-06
5.69365e-06
5.78092e-06
5.8887e-06
5.98916e-06
6.0877e-06
6.00702e-06
5.86559e-06
5.68886e-06
5.49034e-06
5.2776e-06
5.05225e-06
4.8137e-06
4.56126e-06
4.27846e-06
3.96458e-06
3.58649e-06
3.14161e-06
2.58444e-06
1.92118e-06
1.17365e-06
4.85232e-07
1.44546e-07
3.66826e-08
2.138e-05
0.00025159
0.00161599
0.00804763
0.02094
0.0372428
0.0524428
0.0630013
0.0688439
0.0719248
0.0738465
0.0755789
0.0771096
0.0807991
0.0834147
6.22387e-06
6.23921e-06
6.25333e-06
6.26879e-06
6.28781e-06
6.30874e-06
6.33222e-06
6.35932e-06
6.39045e-06
6.42598e-06
6.46739e-06
6.51594e-06
6.5715e-06
6.64613e-06
6.69159e-06
6.97777e-06
6.43199e-06
5.88502e-06
1.07141e-06
2.29335e-07
0.000137571
4.06769e-05
7.01898e-05
0.000758846
0.0061215
0.0211926
0.0540086
0.112002
0.179284
0.233881
0.273061
0.293423
0.293864
0.295311
0.34477
0.374073
0.357641
0.310189
0.257768
6.20636e-06
6.18875e-06
6.17208e-06
6.15839e-06
6.15398e-06
6.1466e-06
6.15619e-06
6.17238e-06
6.19177e-06
6.213e-06
6.23531e-06
6.2616e-06
6.29153e-06
6.324e-06
6.36031e-06
6.40029e-06
6.44557e-06
6.49715e-06
6.55823e-06
6.63147e-06
6.72246e-06
6.84262e-06
6.98397e-06
7.17675e-06
7.23654e-06
6.98072e-06
5.79978e-06
6.0879e-06
0.000284372
0.00148491
0.00471919
0.0104665
0.0182796
0.0272346
0.036313
0.0448092
0.0519898
0.0588187
0.0670998
6.11396e-06
6.11288e-06
6.11259e-06
6.11197e-06
6.11078e-06
6.11041e-06
6.11157e-06
6.11416e-06
6.11938e-06
6.12729e-06
6.13842e-06
6.15356e-06
6.17366e-06
6.20007e-06
6.23297e-06
6.28408e-06
6.31508e-06
6.37232e-06
5.42349e-06
4.54492e-06
5.7351e-08
5.6621e-07
4.16714e-07
0.000142449
0.00132044
0.000946184
0.00712117
0.0335883
0.0992725
0.191571
0.275903
0.331345
0.361045
0.406372
0.483005
0.51557
0.480722
0.401359
0.310746
6.11059e-06
6.1099e-06
6.10898e-06
6.10926e-06
6.11596e-06
6.12037e-06
6.11956e-06
6.11701e-06
6.11395e-06
6.11175e-06
6.11019e-06
6.10915e-06
6.10872e-06
6.1091e-06
6.11016e-06
6.11196e-06
6.11451e-06
6.11772e-06
6.12145e-06
6.12565e-06
6.13007e-06
6.13454e-06
6.13921e-06
6.14465e-06
6.15172e-06
6.17343e-06
6.15355e-06
6.37895e-06
5.72162e-06
6.93203e-06
4.09732e-08
6.49642e-06
0.000412604
0.00160749
0.00417064
0.00873475
0.0155081
0.0248821
0.0416631
6.12515e-06
6.12566e-06
6.12626e-06
6.12619e-06
6.12576e-06
6.12575e-06
6.12673e-06
6.1288e-06
6.13184e-06
6.136e-06
6.14137e-06
6.14817e-06
6.1567e-06
6.16744e-06
6.18094e-06
6.19841e-06
6.22207e-06
6.25115e-06
6.31791e-06
6.45476e-06
5.54185e-06
2.34407e-06
7.56911e-13
6.2226e-18
0
0.00019081
0.00155043
0.000663231
0.0187252
0.0898606
0.204795
0.307041
0.380962
0.473491
0.580867
0.622062
0.576438
0.476087
0.35164
6.12113e-06
6.11783e-06
6.11601e-06
6.1132e-06
6.11646e-06
6.11796e-06
6.11804e-06
6.11809e-06
6.11866e-06
6.12007e-06
6.12191e-06
6.12412e-06
6.12701e-06
6.13033e-06
6.13427e-06
6.1388e-06
6.14399e-06
6.1499e-06
6.15657e-06
6.164e-06
6.17227e-06
6.18146e-06
6.19177e-06
6.2036e-06
6.21816e-06
6.23372e-06
6.26029e-06
6.25693e-06
6.3666e-06
6.14552e-06
5.98981e-06
3.6877e-07
7.91132e-05
9.73807e-08
9.7145e-07
1.45972e-05
0.000801627
0.00208086
0.0141492
6.11876e-06
6.11841e-06
6.1184e-06
6.11812e-06
6.11772e-06
6.11805e-06
6.1192e-06
6.12109e-06
6.12387e-06
6.12741e-06
6.13171e-06
6.13691e-06
6.14307e-06
6.15049e-06
6.15962e-06
6.17084e-06
6.18663e-06
6.2018e-06
6.23289e-06
6.24711e-06
6.59439e-06
6.25401e-06
5.62812e-06
2.67069e-08
6.81382e-11
0
0
0.000127625
0.00461205
0.0147567
0.0928882
0.219172
0.345901
0.493285
0.637671
0.694238
0.646349
0.535324
0.386727
6.11597e-06
6.11286e-06
6.11164e-06
6.10901e-06
6.1118e-06
6.11332e-06
6.1132e-06
6.11294e-06
6.11331e-06
6.11435e-06
6.11587e-06
6.11761e-06
6.1195e-06
6.1214e-06
6.12351e-06
6.12575e-06
6.1282e-06
6.13084e-06
6.13369e-06
6.13668e-06
6.14011e-06
6.14388e-06
6.14793e-06
6.15247e-06
6.15754e-06
6.16306e-06
6.1688e-06
6.17534e-06
6.18265e-06
6.18501e-06
6.22456e-06
6.17411e-06
5.16758e-06
2.70216e-06
1.16837e-07
2.8232e-07
0.000180749
0.000534696
0.00236053
6.11648e-06
6.11583e-06
6.11563e-06
6.11503e-06
6.11445e-06
6.11451e-06
6.11527e-06
6.11661e-06
6.11854e-06
6.12088e-06
6.1235e-06
6.12634e-06
6.12929e-06
6.13225e-06
6.13501e-06
6.13813e-06
6.1422e-06
6.14607e-06
6.15366e-06
6.14768e-06
6.22553e-06
6.283e-06
7.07797e-06
6.18313e-06
4.65429e-08
1.95816e-09
0
0
0
0.00377216
0.0155348
0.100772
0.255166
0.459383
0.648759
0.729505
0.689225
0.578017
0.416664
6.11465e-06
6.11152e-06
6.10986e-06
6.10692e-06
6.10946e-06
6.11078e-06
6.11063e-06
6.1105e-06
6.11122e-06
6.11246e-06
6.11389e-06
6.11541e-06
6.11705e-06
6.11875e-06
6.12067e-06
6.12281e-06
6.12526e-06
6.12803e-06
6.1312e-06
6.13477e-06
6.13881e-06
6.14334e-06
6.14849e-06
6.15439e-06
6.16131e-06
6.16949e-06
6.17914e-06
6.19052e-06
6.20345e-06
6.22166e-06
6.22481e-06
6.29712e-06
6.2126e-06
5.5176e-06
3.92061e-06
1.12419e-06
1.29749e-08
1.52314e-11
5.71633e-05
6.11407e-06
6.11328e-06
6.11287e-06
6.11205e-06
6.11135e-06
6.1114e-06
6.1122e-06
6.11364e-06
6.11575e-06
6.11833e-06
6.12134e-06
6.1248e-06
6.12869e-06
6.13305e-06
6.13798e-06
6.1436e-06
6.15014e-06
6.15785e-06
6.16621e-06
6.17108e-06
6.18398e-06
6.17396e-06
6.23946e-06
7.62916e-06
6.51053e-06
7.8558e-07
6.92656e-09
0
0
0
0.00396955
0.0162824
0.134586
0.37064
0.607776
0.722733
0.70141
0.601167
0.438865
6.1131e-06
6.11012e-06
6.10805e-06
6.10497e-06
6.10729e-06
6.10858e-06
6.10852e-06
6.10849e-06
6.10929e-06
6.11031e-06
6.11146e-06
6.11269e-06
6.114e-06
6.11533e-06
6.11682e-06
6.11843e-06
6.12025e-06
6.12229e-06
6.1246e-06
6.12717e-06
6.13005e-06
6.13324e-06
6.1368e-06
6.14077e-06
6.14521e-06
6.15023e-06
6.1559e-06
6.16225e-06
6.1693e-06
6.1771e-06
6.18554e-06
6.19461e-06
6.21959e-06
6.18869e-06
6.54221e-06
6.23417e-06
3.54798e-06
1.92871e-08
5.19275e-07
6.11207e-06
6.11129e-06
6.11062e-06
6.1095e-06
6.10862e-06
6.10854e-06
6.1092e-06
6.11045e-06
6.11228e-06
6.1145e-06
6.11705e-06
6.11991e-06
6.12303e-06
6.12642e-06
6.1301e-06
6.13407e-06
6.13837e-06
6.14287e-06
6.14854e-06
6.15584e-06
6.16493e-06
6.17798e-06
6.14126e-06
6.22746e-06
7.48238e-06
7.27436e-06
2.07242e-06
1.23737e-08
0
0
0
0.0048556
0.0391749
0.245045
0.511512
0.667165
0.676839
0.599816
0.448874
6.11165e-06
6.10884e-06
6.1065e-06
6.10347e-06
6.10542e-06
6.10673e-06
6.10689e-06
6.10697e-06
6.10756e-06
6.10833e-06
6.10925e-06
6.11026e-06
6.11134e-06
6.11244e-06
6.11366e-06
6.11499e-06
6.1165e-06
6.11819e-06
6.12014e-06
6.12236e-06
6.12489e-06
6.12777e-06
6.13109e-06
6.1349e-06
6.13934e-06
6.14455e-06
6.15065e-06
6.15775e-06
6.166e-06
6.1756e-06
6.18681e-06
6.19943e-06
6.21399e-06
6.22892e-06
6.29093e-06
6.39828e-06
6.77103e-06
4.81239e-06
3.65262e-09
6.11015e-06
6.10944e-06
6.10843e-06
6.10707e-06
6.10612e-06
6.106e-06
6.10659e-06
6.10776e-06
6.10946e-06
6.11152e-06
6.11389e-06
6.11658e-06
6.11956e-06
6.12285e-06
6.12651e-06
6.13057e-06
6.13516e-06
6.14034e-06
6.14617e-06
6.15295e-06
6.15972e-06
6.17143e-06
6.18141e-06
6.1112e-06
6.26551e-06
7.35474e-06
7.74114e-06
3.2928e-06
1.25368e-08
0
0
0
0.012428
0.120763
0.368767
0.558185
0.608131
0.566906
0.440623
6.10992e-06
6.10729e-06
6.10476e-06
6.10185e-06
6.10345e-06
6.10485e-06
6.1053e-06
6.10545e-06
6.1059e-06
6.10647e-06
6.10722e-06
6.10804e-06
6.10892e-06
6.10981e-06
6.11081e-06
6.11187e-06
6.11307e-06
6.11442e-06
6.11596e-06
6.11772e-06
6.11976e-06
6.12209e-06
6.12479e-06
6.12791e-06
6.13152e-06
6.13572e-06
6.14059e-06
6.1462e-06
6.15263e-06
6.15996e-06
6.16827e-06
6.17795e-06
6.18904e-06
6.20595e-06
6.19645e-06
6.33629e-06
5.97654e-06
8.92877e-06
8.17917e-07
6.10819e-06
6.10748e-06
6.10615e-06
6.1047e-06
6.10384e-06
6.10373e-06
6.10425e-06
6.10527e-06
6.10676e-06
6.10859e-06
6.1107e-06
6.1131e-06
6.11575e-06
6.11868e-06
6.12193e-06
6.12552e-06
6.12953e-06
6.13396e-06
6.13902e-06
6.14522e-06
6.15244e-06
6.16106e-06
6.17519e-06
6.18234e-06
6.10918e-06
6.23812e-06
7.13581e-06
8.38704e-06
3.02738e-06
7.46897e-09
0
0
0.00104993
0.0331716
0.209195
0.400049
0.489703
0.495126
0.407779
6.1078e-06
6.10528e-06
6.10262e-06
6.09988e-06
6.10131e-06
6.1028e-06
6.10356e-06
6.10383e-06
6.10423e-06
6.10471e-06
6.10533e-06
6.10602e-06
6.10678e-06
6.10754e-06
6.10835e-06
6.1092e-06
6.11016e-06
6.11123e-06
6.11248e-06
6.11392e-06
6.11561e-06
6.11757e-06
6.11988e-06
6.1226e-06
6.12579e-06
6.12956e-06
6.13398e-06
6.13913e-06
6.14512e-06
6.15205e-06
6.16004e-06
6.16937e-06
6.18013e-06
6.19367e-06
6.20039e-06
6.26716e-06
6.01589e-06
7.29163e-06
4.7634e-06
6.10587e-06
6.10524e-06
6.10375e-06
6.10246e-06
6.10175e-06
6.10164e-06
6.10205e-06
6.10289e-06
6.10417e-06
6.10577e-06
6.10766e-06
6.10982e-06
6.11225e-06
6.11495e-06
6.11797e-06
6.12134e-06
6.12513e-06
6.12938e-06
6.13419e-06
6.13981e-06
6.1465e-06
6.1542e-06
6.16362e-06
6.1819e-06
6.18007e-06
6.11744e-06
6.18311e-06
7.08487e-06
8.85572e-06
1.69265e-06
1.16138e-09
0
0
0.00982315
0.0787335
0.219737
0.323022
0.376258
0.338652
6.10528e-06
6.1028e-06
6.10007e-06
6.09754e-06
6.0989e-06
6.1005e-06
6.10154e-06
6.10204e-06
6.1025e-06
6.10299e-06
6.10358e-06
6.10423e-06
6.1049e-06
6.10554e-06
6.10623e-06
6.10693e-06
6.10771e-06
6.10857e-06
6.10958e-06
6.11074e-06
6.1121e-06
6.1137e-06
6.11561e-06
6.11789e-06
6.12058e-06
6.12377e-06
6.12752e-06
6.13191e-06
6.13701e-06
6.1429e-06
6.14968e-06
6.15759e-06
6.16688e-06
6.17799e-06
6.19024e-06
6.2114e-06
6.18956e-06
6.3448e-06
6.37184e-06
6.10325e-06
6.10276e-06
6.10131e-06
6.10035e-06
6.09973e-06
6.09959e-06
6.09985e-06
6.10052e-06
6.10159e-06
6.10297e-06
6.10463e-06
6.10657e-06
6.10877e-06
6.11124e-06
6.11403e-06
6.11714e-06
6.12064e-06
6.12459e-06
6.12899e-06
6.13413e-06
6.14031e-06
6.14758e-06
6.15603e-06
6.16778e-06
6.18533e-06
6.18091e-06
6.14765e-06
6.04553e-06
7.38649e-06
9.41444e-06
1.92524e-07
5.43266e-13
0
0.000435274
0.0136862
0.0769017
0.144105
0.208393
0.209228
6.10243e-06
6.10002e-06
6.09731e-06
6.09499e-06
6.09627e-06
6.09799e-06
6.09926e-06
6.10006e-06
6.10066e-06
6.10124e-06
6.10188e-06
6.10252e-06
6.10317e-06
6.10378e-06
6.1044e-06
6.10503e-06
6.10571e-06
6.10645e-06
6.10729e-06
6.10823e-06
6.10934e-06
6.11064e-06
6.11221e-06
6.1141e-06
6.11637e-06
6.11909e-06
6.12232e-06
6.12614e-06
6.13063e-06
6.13585e-06
6.14193e-06
6.14902e-06
6.15733e-06
6.16718e-06
6.17888e-06
6.19131e-06
6.21755e-06
6.18028e-06
6.43058e-06
6.10046e-06
6.10012e-06
6.09887e-06
6.09811e-06
6.09763e-06
6.09748e-06
6.09765e-06
6.09818e-06
6.09907e-06
6.10024e-06
6.10168e-06
6.10341e-06
6.1054e-06
6.10767e-06
6.11025e-06
6.11315e-06
6.11643e-06
6.12014e-06
6.12429e-06
6.12906e-06
6.13474e-06
6.14144e-06
6.14934e-06
6.15875e-06
6.17193e-06
6.18382e-06
6.21283e-06
6.09766e-06
5.95411e-06
8.77876e-06
6.15035e-06
8.82598e-09
0
0
0.00347771
0.0136671
0.0335297
0.0626075
0.0633138
6.09947e-06
6.0972e-06
6.09462e-06
6.09245e-06
6.09361e-06
6.09537e-06
6.09682e-06
6.09788e-06
6.09868e-06
6.09941e-06
6.10013e-06
6.10084e-06
6.10152e-06
6.10215e-06
6.10279e-06
6.10341e-06
6.10408e-06
6.10478e-06
6.10555e-06
6.10637e-06
6.10729e-06
6.10834e-06
6.1096e-06
6.11113e-06
6.11299e-06
6.11525e-06
6.11796e-06
6.12121e-06
6.12504e-06
6.12954e-06
6.13482e-06
6.14093e-06
6.14817e-06
6.15685e-06
6.16715e-06
6.17906e-06
6.1991e-06
6.19108e-06
6.29968e-06
6.09773e-06
6.09751e-06
6.09642e-06
6.09582e-06
6.09551e-06
6.09537e-06
6.09552e-06
6.09596e-06
6.09669e-06
6.09765e-06
6.09888e-06
6.10037e-06
6.10213e-06
6.10417e-06
6.10653e-06
6.10922e-06
6.11228e-06
6.11577e-06
6.11967e-06
6.12415e-06
6.12945e-06
6.13568e-06
6.14303e-06
6.15148e-06
6.16233e-06
6.17409e-06
6.18746e-06
6.25384e-06
5.96314e-06
6.10489e-06
1.07675e-05
1.70722e-06
5.24255e-12
0
3.71785e-08
0.000330499
0.0028043
0.00785749
0.00865633
6.09669e-06
6.09464e-06
6.09228e-06
6.09018e-06
6.09112e-06
6.09282e-06
6.09435e-06
6.09558e-06
6.0966e-06
6.09751e-06
6.09831e-06
6.09909e-06
6.09984e-06
6.10056e-06
6.10127e-06
6.10197e-06
6.10269e-06
6.10345e-06
6.10423e-06
6.10501e-06
6.10581e-06
6.10667e-06
6.10767e-06
6.10888e-06
6.11038e-06
6.11223e-06
6.11448e-06
6.11721e-06
6.12049e-06
6.12436e-06
6.12895e-06
6.13429e-06
6.14064e-06
6.1483e-06
6.15737e-06
6.1685e-06
6.18281e-06
6.19504e-06
6.23796e-06
6.09528e-06
6.09511e-06
6.09416e-06
6.09369e-06
6.09346e-06
6.09341e-06
6.09356e-06
6.09392e-06
6.09448e-06
6.09524e-06
6.09623e-06
6.09748e-06
6.099e-06
6.10081e-06
6.10295e-06
6.10542e-06
6.10827e-06
6.11152e-06
6.11521e-06
6.11943e-06
6.1244e-06
6.13023e-06
6.13709e-06
6.14491e-06
6.15407e-06
6.16784e-06
6.16538e-06
6.23052e-06
6.26219e-06
5.52953e-06
8.19153e-06
8.58239e-06
1.1091e-08
0
0
3.98449e-05
0.000639423
0.000251756
0.0020006
6.09439e-06
6.09262e-06
6.0905e-06
6.08837e-06
6.08901e-06
6.09053e-06
6.09203e-06
6.09333e-06
6.09447e-06
6.09552e-06
6.09646e-06
6.09734e-06
6.09818e-06
6.09901e-06
6.09982e-06
6.10063e-06
6.10143e-06
6.10225e-06
6.10305e-06
6.10385e-06
6.1046e-06
6.10534e-06
6.10616e-06
6.10713e-06
6.10833e-06
6.10982e-06
6.11167e-06
6.11394e-06
6.11669e-06
6.12e-06
6.12394e-06
6.12855e-06
6.13408e-06
6.14081e-06
6.1488e-06
6.15882e-06
6.17074e-06
6.18602e-06
6.21468e-06
6.09337e-06
6.09317e-06
6.09229e-06
6.09188e-06
6.09169e-06
6.09164e-06
6.09183e-06
6.09209e-06
6.09251e-06
6.09308e-06
6.09385e-06
6.09486e-06
6.09613e-06
6.09769e-06
6.09958e-06
6.1018e-06
6.10441e-06
6.10742e-06
6.11087e-06
6.11482e-06
6.11948e-06
6.12497e-06
6.13135e-06
6.1388e-06
6.1467e-06
6.15938e-06
6.16509e-06
6.17126e-06
6.31699e-06
5.94435e-06
5.94072e-06
1.04736e-05
2.02281e-06
2.93727e-11
0
0
0
2.08021e-05
0
6.09279e-06
6.09135e-06
6.08939e-06
6.08718e-06
6.08745e-06
6.08868e-06
6.09003e-06
6.09127e-06
6.09244e-06
6.09356e-06
6.0946e-06
6.09559e-06
6.09654e-06
6.09748e-06
6.09838e-06
6.09927e-06
6.10015e-06
6.10102e-06
6.10186e-06
6.10268e-06
6.10347e-06
6.10417e-06
6.10488e-06
6.1057e-06
6.10667e-06
6.10789e-06
6.1094e-06
6.11129e-06
6.1136e-06
6.11641e-06
6.11979e-06
6.12377e-06
6.12858e-06
6.13448e-06
6.14149e-06
6.15037e-06
6.16079e-06
6.17495e-06
6.20042e-06
6.09219e-06
6.09186e-06
6.09096e-06
6.09056e-06
6.09034e-06
6.09025e-06
6.09038e-06
6.09059e-06
6.09087e-06
6.09127e-06
6.09184e-06
6.09261e-06
6.09363e-06
6.09491e-06
6.09651e-06
6.09845e-06
6.10077e-06
6.10351e-06
6.10671e-06
6.11037e-06
6.11469e-06
6.11982e-06
6.12577e-06
6.13277e-06
6.1403e-06
6.1499e-06
6.16375e-06
6.15464e-06
6.23259e-06
6.27114e-06
5.60566e-06
7.73919e-06
9.09519e-06
1.62798e-10
4.26753e-16
0
0
0
0
6.09202e-06
6.09086e-06
6.08897e-06
6.08667e-06
6.08655e-06
6.08741e-06
6.08849e-06
6.08957e-06
6.09066e-06
6.09175e-06
6.09281e-06
6.09385e-06
6.09487e-06
6.09589e-06
6.09687e-06
6.09785e-06
6.09879e-06
6.09972e-06
6.10062e-06
6.10148e-06
6.10229e-06
6.10303e-06
6.10372e-06
6.10444e-06
6.10526e-06
6.10627e-06
6.10753e-06
6.1091e-06
6.11105e-06
6.11344e-06
6.11632e-06
6.11976e-06
6.12394e-06
6.12909e-06
6.13522e-06
6.14307e-06
6.1522e-06
6.16496e-06
6.18784e-06
6.09177e-06
6.09124e-06
6.09028e-06
6.08981e-06
6.08951e-06
6.08934e-06
6.08938e-06
6.08949e-06
6.08963e-06
6.08988e-06
6.09027e-06
6.09082e-06
6.09157e-06
6.09256e-06
6.09386e-06
6.09549e-06
6.0975e-06
6.09992e-06
6.10283e-06
6.10617e-06
6.11012e-06
6.11485e-06
6.12038e-06
6.12684e-06
6.13419e-06
6.14195e-06
6.15546e-06
6.15853e-06
6.16981e-06
6.29922e-06
5.96983e-06
6.08879e-06
9.44709e-06
2.91326e-06
5.76866e-09
2.22996e-12
0
0
0
6.09199e-06
6.09104e-06
6.08917e-06
6.08677e-06
6.08628e-06
6.08675e-06
6.0875e-06
6.08834e-06
6.08925e-06
6.09023e-06
6.09123e-06
6.09225e-06
6.09328e-06
6.09433e-06
6.09536e-06
6.09639e-06
6.09739e-06
6.09837e-06
6.09932e-06
6.10023e-06
6.10108e-06
6.10187e-06
6.10253e-06
6.10321e-06
6.10396e-06
6.10484e-06
6.10592e-06
6.10725e-06
6.10891e-06
6.11094e-06
6.11342e-06
6.11639e-06
6.12003e-06
6.12452e-06
6.12987e-06
6.13678e-06
6.14475e-06
6.15628e-06
6.17639e-06
6.09198e-06
6.09123e-06
6.09017e-06
6.0896e-06
6.0892e-06
6.08893e-06
6.08886e-06
6.08885e-06
6.08887e-06
6.08896e-06
6.08917e-06
6.08951e-06
6.09001e-06
6.09073e-06
6.09171e-06
6.093e-06
6.09466e-06
6.09673e-06
6.09927e-06
6.10227e-06
6.10584e-06
6.11014e-06
6.11525e-06
6.12117e-06
6.12808e-06
6.13534e-06
6.14566e-06
6.15768e-06
6.15374e-06
6.22436e-06
6.21978e-06
5.86445e-06
7.17911e-06
7.92745e-06
1.26601e-06
1.20713e-09
1.2908e-09
0
0
6.09248e-06
6.09164e-06
6.08978e-06
6.08734e-06
6.08653e-06
6.08664e-06
6.08706e-06
6.08761e-06
6.08828e-06
6.08907e-06
6.08994e-06
6.09087e-06
6.09185e-06
6.09287e-06
6.09391e-06
6.09495e-06
6.09598e-06
6.097e-06
6.09799e-06
6.09894e-06
6.09983e-06
6.10065e-06
6.10136e-06
6.10201e-06
6.10271e-06
6.1035e-06
6.10446e-06
6.10562e-06
6.10706e-06
6.10883e-06
6.11097e-06
6.11357e-06
6.11675e-06
6.12067e-06
6.12534e-06
6.13143e-06
6.13837e-06
6.14878e-06
6.16624e-06
6.09255e-06
6.09163e-06
6.09048e-06
6.08982e-06
6.08932e-06
6.08896e-06
6.08876e-06
6.08864e-06
6.08856e-06
6.08852e-06
6.08855e-06
6.0887e-06
6.08897e-06
6.08942e-06
6.09011e-06
6.09106e-06
6.09236e-06
6.09404e-06
6.0962e-06
6.0988e-06
6.10195e-06
6.1058e-06
6.11043e-06
6.11585e-06
6.12216e-06
6.12913e-06
6.1375e-06
6.15012e-06
6.15303e-06
6.17473e-06
6.25172e-06
6.05675e-06
6.18895e-06
7.68338e-06
6.0502e-06
2.01462e-06
5.71123e-07
9.99593e-13
0
6.09318e-06
6.09238e-06
6.09057e-06
6.08816e-06
6.08715e-06
6.08697e-06
6.08709e-06
6.08735e-06
6.08777e-06
6.08834e-06
6.08902e-06
6.0898e-06
6.09067e-06
6.09161e-06
6.0926e-06
6.09362e-06
6.09465e-06
6.09567e-06
6.09668e-06
6.09766e-06
6.09858e-06
6.09943e-06
6.10017e-06
6.10077e-06
6.10143e-06
6.10219e-06
6.10307e-06
6.10413e-06
6.10541e-06
6.10698e-06
6.10887e-06
6.11117e-06
6.11398e-06
6.11742e-06
6.12151e-06
6.1269e-06
6.13295e-06
6.14236e-06
6.1574e-06
6.09321e-06
6.0922e-06
6.091e-06
6.09029e-06
6.08973e-06
6.08928e-06
6.089e-06
6.08879e-06
6.08862e-06
6.08849e-06
6.08837e-06
6.08835e-06
6.08844e-06
6.08867e-06
6.08908e-06
6.08972e-06
6.09067e-06
6.09197e-06
6.09371e-06
6.09589e-06
6.09859e-06
6.10193e-06
6.10603e-06
6.11092e-06
6.11662e-06
6.12308e-06
6.13071e-06
6.14122e-06
6.14917e-06
6.15903e-06
6.21205e-06
6.16714e-06
6.09523e-06
6.72715e-06
6.71477e-06
5.53901e-06
8.08794e-06
2.01452e-11
0
6.09382e-06
6.09304e-06
6.09132e-06
6.08903e-06
6.08792e-06
6.08755e-06
6.08746e-06
6.08749e-06
6.08768e-06
6.08801e-06
6.08848e-06
6.08908e-06
6.08979e-06
6.09062e-06
6.09151e-06
6.09246e-06
6.09344e-06
6.09443e-06
6.09542e-06
6.0964e-06
6.09732e-06
6.09819e-06
6.09895e-06
6.09955e-06
6.10017e-06
6.10088e-06
6.10171e-06
6.10269e-06
6.10387e-06
6.10529e-06
6.107e-06
6.10908e-06
6.11157e-06
6.11462e-06
6.11824e-06
6.12304e-06
6.12834e-06
6.13686e-06
6.14976e-06
6.09373e-06
6.09273e-06
6.09155e-06
6.09083e-06
6.09025e-06
6.08977e-06
6.08943e-06
6.08917e-06
6.08894e-06
6.08876e-06
6.08857e-06
6.08841e-06
6.08834e-06
6.08839e-06
6.08857e-06
6.08893e-06
6.08956e-06
6.0905e-06
6.09183e-06
6.09359e-06
6.09581e-06
6.09862e-06
6.10212e-06
6.10641e-06
6.11148e-06
6.1173e-06
6.12445e-06
6.13343e-06
6.14146e-06
6.15368e-06
6.18319e-06
6.16835e-06
6.18869e-06
6.42178e-06
5.96976e-06
6.3315e-06
1.34433e-05
4.40809e-11
0
6.09425e-06
6.0935e-06
6.0919e-06
6.08979e-06
6.08868e-06
6.08823e-06
6.08801e-06
6.08788e-06
6.08789e-06
6.08803e-06
6.0883e-06
6.08871e-06
6.08925e-06
6.08991e-06
6.09067e-06
6.09152e-06
6.09241e-06
6.09334e-06
6.09429e-06
6.09523e-06
6.09614e-06
6.09699e-06
6.09776e-06
6.09838e-06
6.09892e-06
6.09957e-06
6.10035e-06
6.10128e-06
6.10239e-06
6.10371e-06
6.10529e-06
6.1072e-06
6.10946e-06
6.1122e-06
6.11547e-06
6.11979e-06
6.12445e-06
6.1322e-06
6.14319e-06
6.09405e-06
6.0931e-06
6.09198e-06
6.09131e-06
6.09075e-06
6.09027e-06
6.08992e-06
6.08964e-06
6.08941e-06
6.0892e-06
6.08899e-06
6.08875e-06
6.08857e-06
6.08848e-06
6.08848e-06
6.08864e-06
6.08899e-06
6.08961e-06
6.09057e-06
6.09192e-06
6.09369e-06
6.09596e-06
6.09884e-06
6.10245e-06
6.10684e-06
6.11196e-06
6.11845e-06
6.12661e-06
6.13313e-06
6.14726e-06
6.17136e-06
6.14125e-06
6.22306e-06
6.43158e-06
5.53263e-06
6.52385e-06
1.34343e-05
5.2224e-11
0
6.09447e-06
6.09377e-06
6.09228e-06
6.09037e-06
6.08932e-06
6.08887e-06
6.0886e-06
6.0884e-06
6.08829e-06
6.08828e-06
6.08839e-06
6.08863e-06
6.089e-06
6.08951e-06
6.09013e-06
6.09084e-06
6.09162e-06
6.09245e-06
6.09331e-06
6.09419e-06
6.09505e-06
6.09587e-06
6.09661e-06
6.09723e-06
6.0977e-06
6.09828e-06
6.099e-06
6.09987e-06
6.10091e-06
6.10217e-06
6.10366e-06
6.10546e-06
6.10755e-06
6.1101e-06
6.11312e-06
6.11706e-06
6.12121e-06
6.1283e-06
6.1376e-06
6.09416e-06
6.09328e-06
6.09225e-06
6.09166e-06
6.09114e-06
6.09069e-06
6.09037e-06
6.09011e-06
6.0899e-06
6.08971e-06
6.08951e-06
6.08928e-06
6.08902e-06
6.08883e-06
6.08872e-06
6.08871e-06
6.08886e-06
6.08922e-06
6.08986e-06
6.09084e-06
6.0922e-06
6.09395e-06
6.09621e-06
6.09912e-06
6.10278e-06
6.10713e-06
6.11285e-06
6.12023e-06
6.12554e-06
6.13956e-06
6.16394e-06
6.12103e-06
6.21146e-06
6.47289e-06
5.41382e-06
6.56923e-06
1.26891e-05
5.75737e-11
0
6.09451e-06
6.09386e-06
6.09247e-06
6.09075e-06
6.08981e-06
6.08939e-06
6.08912e-06
6.0889e-06
6.08874e-06
6.08866e-06
6.08865e-06
6.08876e-06
6.089e-06
6.08936e-06
6.08983e-06
6.0904e-06
6.09105e-06
6.09176e-06
6.09253e-06
6.09331e-06
6.0941e-06
6.09486e-06
6.09556e-06
6.09614e-06
6.09659e-06
6.09707e-06
6.0977e-06
6.09849e-06
6.09947e-06
6.10066e-06
6.10209e-06
6.1038e-06
6.1058e-06
6.10822e-06
6.11107e-06
6.11474e-06
6.1185e-06
6.12505e-06
6.13288e-06
6.09414e-06
6.09331e-06
6.09238e-06
6.09186e-06
6.09139e-06
6.09099e-06
6.09071e-06
6.0905e-06
6.09033e-06
6.09019e-06
6.09003e-06
6.08984e-06
6.08959e-06
6.08935e-06
6.08917e-06
6.08905e-06
6.08905e-06
6.08922e-06
6.0896e-06
6.09028e-06
6.09127e-06
6.09256e-06
6.09424e-06
6.09647e-06
6.09937e-06
6.1029e-06
6.1078e-06
6.11417e-06
6.11885e-06
6.13192e-06
6.15479e-06
6.10962e-06
6.19581e-06
6.47616e-06
5.3927e-06
6.53291e-06
1.24607e-05
1.49854e-09
0
6.09445e-06
6.09383e-06
6.0925e-06
6.09094e-06
6.0901e-06
6.08974e-06
6.08952e-06
6.08932e-06
6.08915e-06
6.08904e-06
6.08898e-06
6.08901e-06
6.08914e-06
6.08938e-06
6.08973e-06
6.09017e-06
6.0907e-06
6.0913e-06
6.09194e-06
6.09263e-06
6.09332e-06
6.094e-06
6.09462e-06
6.09515e-06
6.09556e-06
6.09594e-06
6.09645e-06
6.09715e-06
6.09805e-06
6.09917e-06
6.10054e-06
6.10218e-06
6.10411e-06
6.10645e-06
6.10919e-06
6.11268e-06
6.11619e-06
6.12232e-06
6.12894e-06
6.09404e-06
6.09326e-06
6.0924e-06
6.09195e-06
6.09154e-06
6.09117e-06
6.09094e-06
6.09078e-06
6.09068e-06
6.0906e-06
6.0905e-06
6.09036e-06
6.09017e-06
6.08992e-06
6.08971e-06
6.08954e-06
6.08946e-06
6.08949e-06
6.08969e-06
6.09013e-06
6.09083e-06
6.09173e-06
6.09292e-06
6.09451e-06
6.09667e-06
6.09937e-06
6.10339e-06
6.10867e-06
6.11281e-06
6.12451e-06
6.14486e-06
6.10253e-06
6.18517e-06
6.45596e-06
5.38079e-06
6.34021e-06
1.34606e-05
7.65808e-08
2.73373e-13
6.0943e-06
6.09368e-06
6.09235e-06
6.09092e-06
6.09018e-06
6.08989e-06
6.08972e-06
6.08957e-06
6.08944e-06
6.08935e-06
6.08928e-06
6.08928e-06
6.08935e-06
6.08952e-06
6.08977e-06
6.09011e-06
6.09053e-06
6.09101e-06
6.09154e-06
6.09212e-06
6.0927e-06
6.09328e-06
6.09382e-06
6.09426e-06
6.09462e-06
6.09489e-06
6.0953e-06
6.09589e-06
6.09669e-06
6.09773e-06
6.09901e-06
6.10058e-06
6.10244e-06
6.10472e-06
6.10739e-06
6.11075e-06
6.1141e-06
6.11998e-06
6.12564e-06
6.09389e-06
6.09317e-06
6.09238e-06
6.09199e-06
6.09162e-06
6.0913e-06
6.09111e-06
6.09099e-06
6.09094e-06
6.09093e-06
6.09089e-06
6.09083e-06
6.0907e-06
6.09049e-06
6.09029e-06
6.09011e-06
6.08999e-06
6.08994e-06
6.09002e-06
6.09029e-06
6.09076e-06
6.09138e-06
6.09217e-06
6.09323e-06
6.09472e-06
6.09661e-06
6.09968e-06
6.10401e-06
6.10713e-06
6.11745e-06
6.13652e-06
6.09529e-06
6.1749e-06
6.43451e-06
5.25236e-06
7.25641e-06
1.18988e-05
8.21091e-07
3.56709e-12
6.09407e-06
6.09338e-06
6.09202e-06
6.09068e-06
6.09002e-06
6.08979e-06
6.08969e-06
6.08961e-06
6.08955e-06
6.0895e-06
6.08947e-06
6.08948e-06
6.08954e-06
6.08967e-06
6.08987e-06
6.09014e-06
6.09048e-06
6.09086e-06
6.0913e-06
6.09177e-06
6.09225e-06
6.09272e-06
6.09316e-06
6.09351e-06
6.09378e-06
6.09395e-06
6.09425e-06
6.09473e-06
6.09543e-06
6.09636e-06
6.09755e-06
6.09903e-06
6.10082e-06
6.10304e-06
6.10563e-06
6.10888e-06
6.11212e-06
6.11783e-06
6.1228e-06
6.09369e-06
6.09305e-06
6.09235e-06
6.09202e-06
6.0917e-06
6.09142e-06
6.09126e-06
6.09118e-06
6.09117e-06
6.09121e-06
6.09123e-06
6.09122e-06
6.09116e-06
6.09103e-06
6.09084e-06
6.09068e-06
6.09054e-06
6.09047e-06
6.09048e-06
6.09064e-06
6.09095e-06
6.09137e-06
6.09187e-06
6.09251e-06
6.09344e-06
6.09463e-06
6.09675e-06
6.10025e-06
6.10193e-06
6.11114e-06
6.13001e-06
6.08606e-06
6.1639e-06
6.42121e-06
5.14978e-06
8.32182e-06
9.32269e-06
9.17562e-07
4.71412e-12
6.09373e-06
6.09296e-06
6.09155e-06
6.09023e-06
6.08961e-06
6.08943e-06
6.0894e-06
6.0894e-06
6.08942e-06
6.08945e-06
6.08949e-06
6.08954e-06
6.08964e-06
6.08978e-06
6.08997e-06
6.09021e-06
6.09049e-06
6.09081e-06
6.09116e-06
6.09154e-06
6.09193e-06
6.0923e-06
6.09263e-06
6.09289e-06
6.09307e-06
6.09317e-06
6.09335e-06
6.09369e-06
6.09426e-06
6.09508e-06
6.09617e-06
6.09755e-06
6.09926e-06
6.10139e-06
6.1039e-06
6.10704e-06
6.11019e-06
6.11575e-06
6.12023e-06
6.09341e-06
6.09289e-06
6.09232e-06
6.09208e-06
6.09183e-06
6.09159e-06
6.09147e-06
6.09141e-06
6.09144e-06
6.0915e-06
6.09156e-06
6.0916e-06
6.09159e-06
6.09152e-06
6.09136e-06
6.09123e-06
6.09111e-06
6.09103e-06
6.09102e-06
6.0911e-06
6.09131e-06
6.09158e-06
6.09187e-06
6.0922e-06
6.0927e-06
6.09332e-06
6.0946e-06
6.09727e-06
6.09767e-06
6.10559e-06
6.12426e-06
6.07659e-06
6.15347e-06
6.41411e-06
5.10001e-06
8.67258e-06
8.65335e-06
8.7031e-07
5.25182e-12
6.09331e-06
6.09247e-06
6.09102e-06
6.08966e-06
6.08901e-06
6.08883e-06
6.08884e-06
6.08892e-06
6.08903e-06
6.08916e-06
6.08928e-06
6.08942e-06
6.08958e-06
6.08977e-06
6.08998e-06
6.09022e-06
6.09049e-06
6.09077e-06
6.09108e-06
6.09139e-06
6.0917e-06
6.09199e-06
6.09223e-06
6.09238e-06
6.09247e-06
6.09248e-06
6.09254e-06
6.09277e-06
6.09321e-06
6.09391e-06
6.09488e-06
6.09615e-06
6.09776e-06
6.0998e-06
6.10221e-06
6.10523e-06
6.10829e-06
6.11369e-06
6.11779e-06
6.09309e-06
6.09271e-06
6.09229e-06
6.09218e-06
6.09201e-06
6.09184e-06
6.09176e-06
6.09173e-06
6.09178e-06
6.09186e-06
6.09194e-06
6.092e-06
6.09202e-06
6.09199e-06
6.09189e-06
6.09176e-06
6.09165e-06
6.09158e-06
6.09156e-06
6.09162e-06
6.09176e-06
6.09193e-06
6.09208e-06
6.09219e-06
6.09238e-06
6.09257e-06
6.09314e-06
6.09501e-06
6.09448e-06
6.10069e-06
6.1185e-06
6.0694e-06
6.14477e-06
6.40439e-06
5.07471e-06
8.74215e-06
8.75216e-06
8.64558e-07
6.12161e-12
6.0929e-06
6.09211e-06
6.09063e-06
6.08917e-06
6.08839e-06
6.08813e-06
6.08812e-06
6.08823e-06
6.08841e-06
6.08861e-06
6.08883e-06
6.08907e-06
6.08931e-06
6.08957e-06
6.08985e-06
6.09013e-06
6.09041e-06
6.0907e-06
6.09099e-06
6.09127e-06
6.09152e-06
6.09175e-06
6.0919e-06
6.09197e-06
6.09196e-06
6.0919e-06
6.09184e-06
6.09195e-06
6.09228e-06
6.09285e-06
6.09369e-06
6.09485e-06
6.09635e-06
6.09827e-06
6.10056e-06
6.10345e-06
6.10643e-06
6.11166e-06
6.11543e-06
6.0928e-06
6.09255e-06
6.09229e-06
6.09231e-06
6.09225e-06
6.09217e-06
6.09215e-06
6.09216e-06
6.09222e-06
6.09232e-06
6.0924e-06
6.09247e-06
6.09251e-06
6.0925e-06
6.09244e-06
6.0923e-06
6.09221e-06
6.09215e-06
6.09212e-06
6.09217e-06
6.09227e-06
6.0924e-06
6.09245e-06
6.09239e-06
6.09233e-06
6.09222e-06
6.09224e-06
6.09344e-06
6.09224e-06
6.09643e-06
6.11303e-06
6.06543e-06
6.13594e-06
6.38845e-06
5.0815e-06
8.66758e-06
8.64605e-06
8.65278e-07
7.17689e-12
6.09266e-06
6.09207e-06
6.09063e-06
6.089e-06
6.08801e-06
6.08756e-06
6.08742e-06
6.08748e-06
6.08766e-06
6.0879e-06
6.08819e-06
6.0885e-06
6.08884e-06
6.08918e-06
6.08953e-06
6.08988e-06
6.09021e-06
6.09054e-06
6.09083e-06
6.09111e-06
6.09134e-06
6.09152e-06
6.09161e-06
6.09161e-06
6.09152e-06
6.09138e-06
6.09123e-06
6.09124e-06
6.09145e-06
6.09189e-06
6.09261e-06
6.09364e-06
6.09503e-06
6.09681e-06
6.09897e-06
6.10173e-06
6.10459e-06
6.10965e-06
6.11312e-06
6.0927e-06
6.0925e-06
6.09236e-06
6.09252e-06
6.09256e-06
6.09257e-06
6.09262e-06
6.09269e-06
6.09278e-06
6.09289e-06
6.09298e-06
6.09305e-06
6.09309e-06
6.09309e-06
6.09304e-06
6.09294e-06
6.09282e-06
6.09274e-06
6.0927e-06
6.09273e-06
6.09281e-06
6.09291e-06
6.09289e-06
6.09269e-06
6.0924e-06
6.09211e-06
6.09179e-06
6.09258e-06