/*--------------------------------*- C++ -*----------------------------------*\
| =========                 |                                                 |
| \\      /  F ield         | OpenFOAM: The Open Source CFD Toolbox           |
|  \\    /   O peration     | Version:  2312                                  |
|   \\  /    A nd           | Website:  www.openfoam.com                      |
|    \\/     M anipulation  |                                                 |
\*---------------------------------------------------------------------------*/
FoamFile
{
    version     2.0;
    format      ascii;
    arch        "LSB;label=32;scalar=64";
    class       volScalarField;
    location    "50";
    object      nuTilda;
}
// * * * * * * * * * * * * * * * * * * * * * * * * * * * * * * * * * * * * * //

dimensions      [0 2 -1 0 0 0 0];

internalField   nonuniform List<scalar> 
10720
(
5.37225e-05
5.62821e-05
5.95073e-05
6.34542e-05
6.83564e-05
7.45079e-05
8.24062e-05
9.24637e-05
0.000105585
0.000122837
0.000145745
0.000176936
0.000219882
0.000281155
0.000368888
0.000498254
0.000694737
0.00100969
0.00153125
0.00245661
0.00422196
0.00817206
0.0162854
0.0487546
0.0651478
0.0611743
0.0593577
0.0540853
0.0500966
0.0485985
0.0448433
0.0405851
0.0459597
0.0309222
0.0321825
0.038816
0.0404075
0.038944
0.0411881
5.1424e-05
4.92841e-05
4.70604e-05
4.48261e-05
4.26646e-05
4.10884e-05
4.33754e-05
4.68387e-05
5.14355e-05
5.75065e-05
6.56167e-05
7.65852e-05
9.15457e-05
0.000112359
0.000141671
0.000183927
0.000246283
0.000340699
0.000489468
0.000729216
0.00113474
0.001846
0.00322043
0.00567367
0.011304
0.0226648
0.0503022
0.0862946
0.107963
0.115682
0.117809
0.118397
0.118262
0.117542
0.116326
0.11475
0.112436
0.109559
0.100243
3.89349e-05
3.87334e-05
3.8534e-05
3.83415e-05
3.81167e-05
3.7886e-05
3.76676e-05
3.74386e-05
3.72342e-05
3.70545e-05
3.69015e-05
3.68052e-05
3.68789e-05
3.67799e-05
3.8881e-05
4.50404e-05
6.10416e-05
9.77638e-05
0.000176135
0.000358992
0.000738886
0.00201912
0.00403796
0.0158534
0.0388813
0.0712815
0.112021
0.149024
0.176136
0.192642
0.200169
0.197778
0.1813
0.141212
0.159502
0.189493
0.201052
0.200564
0.179153
3.90926e-05
3.92906e-05
3.94587e-05
3.96641e-05
3.98535e-05
4.00373e-05
3.98869e-05
3.96203e-05
3.92813e-05
3.88925e-05
3.84659e-05
3.80017e-05
3.74957e-05
3.69422e-05
3.6298e-05
3.55493e-05
3.45935e-05
3.33783e-05
3.16793e-05
2.92888e-05
2.57568e-05
2.05365e-05
1.51178e-05
1.07135e-05
5.88755e-05
0.000256901
0.00161613
0.00804764
0.02094
0.0372428
0.0524428
0.0630013
0.0688439
0.0719248
0.0738465
0.0755789
0.0771096
0.0807991
0.0834147
4.02883e-05
4.03163e-05
4.03421e-05
4.03703e-05
4.04049e-05
4.04429e-05
4.04855e-05
4.05345e-05
4.05906e-05
4.06545e-05
4.07287e-05
4.08152e-05
4.09138e-05
4.10454e-05
4.11252e-05
4.16195e-05
4.06653e-05
3.96572e-05
2.51569e-05
1.69839e-05
0.000151681
7.50784e-05
9.73877e-05
0.000759466
0.00612151
0.0211926
0.0540086
0.112002
0.179284
0.233881
0.273061
0.293423
0.293864
0.295311
0.34477
0.374073
0.357641
0.310189
0.257768
4.02562e-05
4.02238e-05
4.01932e-05
4.0168e-05
4.01599e-05
4.01463e-05
4.01639e-05
4.01938e-05
4.02294e-05
4.02683e-05
4.03092e-05
4.03572e-05
4.04117e-05
4.04706e-05
4.05363e-05
4.06084e-05
4.06896e-05
4.07818e-05
4.08903e-05
4.10196e-05
4.11791e-05
4.13876e-05
4.16301e-05
4.1956e-05
4.2056e-05
4.16246e-05
3.94948e-05
4.00377e-05
0.000288606
0.00148507
0.0047192
0.0104665
0.0182796
0.0272346
0.036313
0.0448092
0.0519898
0.0588187
0.0670998
4.0086e-05
4.0084e-05
4.00834e-05
4.00823e-05
4.00801e-05
4.00794e-05
4.00815e-05
4.00863e-05
4.0096e-05
4.01106e-05
4.01312e-05
4.01591e-05
4.01961e-05
4.02446e-05
4.03049e-05
4.03981e-05
4.04544e-05
4.0558e-05
3.87596e-05
3.69057e-05
1.19839e-05
2.13602e-05
1.97569e-05
0.000155904
0.00132065
0.000946583
0.00712118
0.0335883
0.0992725
0.191571
0.275903
0.331345
0.361045
0.406372
0.483005
0.51557
0.480722
0.401359
0.310746
4.00797e-05
4.00784e-05
4.00767e-05
4.00773e-05
4.00897e-05
4.00978e-05
4.00963e-05
4.00916e-05
4.00859e-05
4.00819e-05
4.0079e-05
4.0077e-05
4.00763e-05
4.0077e-05
4.00789e-05
4.00823e-05
4.0087e-05
4.00929e-05
4.00998e-05
4.01076e-05
4.01158e-05
4.0124e-05
4.01326e-05
4.01427e-05
4.01557e-05
4.01957e-05
4.01591e-05
4.05699e-05
3.93447e-05
4.15414e-05
1.10147e-05
4.07805e-05
0.000414675
0.00160763
0.00417066
0.00873476
0.0155081
0.0248821
0.0416631
4.01066e-05
4.01076e-05
4.01087e-05
4.01086e-05
4.01078e-05
4.01078e-05
4.01096e-05
4.01134e-05
4.0119e-05
4.01267e-05
4.01366e-05
4.01492e-05
4.01649e-05
4.01847e-05
4.02095e-05
4.02416e-05
4.02849e-05
4.03381e-05
4.04596e-05
4.07061e-05
3.89943e-05
3.08682e-05
7.21448e-07
3.86311e-08
0
0.000199422
0.00155058
0.000664041
0.0187252
0.0898606
0.204795
0.307041
0.380962
0.473491
0.580867
0.622062
0.576438
0.476087
0.35164
4.00992e-05
4.00931e-05
4.00897e-05
4.00845e-05
4.00906e-05
4.00933e-05
4.00935e-05
4.00936e-05
4.00947e-05
4.00973e-05
4.01007e-05
4.01048e-05
4.01101e-05
4.01162e-05
4.01235e-05
4.01319e-05
4.01415e-05
4.01523e-05
4.01646e-05
4.01783e-05
4.01936e-05
4.02104e-05
4.02294e-05
4.02511e-05
4.02778e-05
4.03063e-05
4.03548e-05
4.03487e-05
4.05476e-05
4.01443e-05
3.98547e-05
1.91533e-05
0.000104166
1.36879e-05
2.45294e-05
5.19218e-05
0.000802182
0.00208094
0.0141492
4.00948e-05
4.00942e-05
4.00942e-05
4.00937e-05
4.00929e-05
4.00935e-05
4.00957e-05
4.00991e-05
4.01043e-05
4.01108e-05
4.01188e-05
4.01284e-05
4.01398e-05
4.01534e-05
4.01703e-05
4.01909e-05
4.02199e-05
4.02478e-05
4.03047e-05
4.03307e-05
4.09543e-05
4.03433e-05
3.91633e-05
9.89448e-06
2.22226e-06
0
0
0.000143185
0.00461206
0.0147567
0.0928882
0.219172
0.345901
0.493285
0.637671
0.694238
0.646349
0.535324
0.386727
4.00897e-05
4.00839e-05
4.00817e-05
4.00768e-05
4.00819e-05
4.00848e-05
4.00845e-05
4.00841e-05
4.00847e-05
4.00867e-05
4.00895e-05
4.00927e-05
4.00962e-05
4.00997e-05
4.01036e-05
4.01078e-05
4.01123e-05
4.01172e-05
4.01224e-05
4.0128e-05
4.01343e-05
4.01412e-05
4.01487e-05
4.01571e-05
4.01664e-05
4.01766e-05
4.01872e-05
4.01992e-05
4.02126e-05
4.0217e-05
4.02895e-05
4.01969e-05
3.82409e-05
3.20577e-05
1.43294e-05
1.79001e-05
0.000190157
0.000535939
0.00236059
4.00906e-05
4.00894e-05
4.0089e-05
4.00879e-05
4.00869e-05
4.0087e-05
4.00884e-05
4.00909e-05
4.00944e-05
4.00988e-05
4.01036e-05
4.01089e-05
4.01143e-05
4.01198e-05
4.01249e-05
4.01306e-05
4.01382e-05
4.01453e-05
4.01593e-05
4.01483e-05
4.02913e-05
4.03962e-05
4.17897e-05
4.02135e-05
1.13724e-05
5.14573e-06
0
0
0
0.00377219
0.0155348
0.100772
0.255166
0.459383
0.648759
0.729505
0.689225
0.578017
0.416664
4.00872e-05
4.00814e-05
4.00784e-05
4.00729e-05
4.00776e-05
4.00801e-05
4.00798e-05
4.00795e-05
4.00809e-05
4.00832e-05
4.00858e-05
4.00886e-05
4.00917e-05
4.00948e-05
4.00984e-05
4.01023e-05
4.01069e-05
4.0112e-05
4.01178e-05
4.01244e-05
4.01319e-05
4.01403e-05
4.01497e-05
4.01606e-05
4.01734e-05
4.01884e-05
4.02062e-05
4.02271e-05
4.02508e-05
4.02842e-05
4.029e-05
4.04218e-05
4.02676e-05
3.89464e-05
3.54414e-05
2.54715e-05
8.25829e-06
1.52802e-06
8.75994e-05
4.00862e-05
4.00847e-05
4.00839e-05
4.00824e-05
4.00811e-05
4.00812e-05
4.00827e-05
4.00854e-05
4.00893e-05
4.0094e-05
4.00996e-05
4.0106e-05
4.01132e-05
4.01212e-05
4.01304e-05
4.01407e-05
4.01528e-05
4.0167e-05
4.01824e-05
4.01914e-05
4.02151e-05
4.01967e-05
4.03168e-05
4.27005e-05
4.08056e-05
2.32261e-05
7.05797e-06
0
0
0
0.00396957
0.0162824
0.134586
0.37064
0.607776
0.722733
0.70141
0.601167
0.438865
4.00844e-05
4.00788e-05
4.0075e-05
4.00693e-05
4.00736e-05
4.0076e-05
4.00759e-05
4.00758e-05
4.00773e-05
4.00792e-05
4.00813e-05
4.00836e-05
4.0086e-05
4.00885e-05
4.00912e-05
4.00942e-05
4.00976e-05
4.01014e-05
4.01056e-05
4.01104e-05
4.01157e-05
4.01216e-05
4.01282e-05
4.01355e-05
4.01437e-05
4.0153e-05
4.01634e-05
4.01751e-05
4.01881e-05
4.02024e-05
4.0218e-05
4.02346e-05
4.02804e-05
4.02237e-05
4.08619e-05
4.03071e-05
3.44925e-05
9.11991e-06
2.08942e-05
4.00825e-05
4.0081e-05
4.00798e-05
4.00777e-05
4.00761e-05
4.00759e-05
4.00771e-05
4.00795e-05
4.00828e-05
4.0087e-05
4.00917e-05
4.0097e-05
4.01027e-05
4.0109e-05
4.01158e-05
4.01231e-05
4.01311e-05
4.01394e-05
4.01498e-05
4.01633e-05
4.018e-05
4.02041e-05
4.01364e-05
4.02948e-05
4.2462e-05
4.2119e-05
2.98791e-05
8.16082e-06
0
0
0
0.00485562
0.0391749
0.245045
0.511512
0.667165
0.676839
0.599816
0.448874
4.00817e-05
4.00765e-05
4.00721e-05
4.00665e-05
4.00701e-05
4.00726e-05
4.00729e-05
4.0073e-05
4.00741e-05
4.00755e-05
4.00772e-05
4.00791e-05
4.00811e-05
4.00831e-05
4.00854e-05
4.00879e-05
4.00906e-05
4.00938e-05
4.00974e-05
4.01015e-05
4.01062e-05
4.01115e-05
4.01176e-05
4.01247e-05
4.01329e-05
4.01425e-05
4.01537e-05
4.01668e-05
4.0182e-05
4.01997e-05
4.02203e-05
4.02435e-05
4.02701e-05
4.02975e-05
4.04106e-05
4.06047e-05
4.12637e-05
3.74929e-05
6.01397e-06
4.00789e-05
4.00776e-05
4.00757e-05
4.00732e-05
4.00714e-05
4.00712e-05
4.00723e-05
4.00745e-05
4.00776e-05
4.00814e-05
4.00858e-05
4.00908e-05
4.00963e-05
4.01024e-05
4.01092e-05
4.01167e-05
4.01252e-05
4.01347e-05
4.01455e-05
4.0158e-05
4.01705e-05
4.0192e-05
4.02104e-05
4.00808e-05
4.03643e-05
4.22522e-05
4.28807e-05
3.38036e-05
8.1876e-06
0
0
0
0.012428
0.120763
0.368767
0.558185
0.608131
0.566906
0.440623
4.00785e-05
4.00736e-05
4.00689e-05
4.00635e-05
4.00665e-05
4.00691e-05
4.00699e-05
4.00702e-05
4.0071e-05
4.00721e-05
4.00735e-05
4.0075e-05
4.00766e-05
4.00783e-05
4.00801e-05
4.00821e-05
4.00843e-05
4.00868e-05
4.00897e-05
4.00929e-05
4.00967e-05
4.0101e-05
4.0106e-05
4.01118e-05
4.01184e-05
4.01262e-05
4.01352e-05
4.01455e-05
4.01574e-05
4.01709e-05
4.01862e-05
4.0204e-05
4.02244e-05
4.02554e-05
4.0238e-05
4.04929e-05
3.98298e-05
4.47027e-05
2.34678e-05
4.00753e-05
4.0074e-05
4.00715e-05
4.00688e-05
4.00672e-05
4.0067e-05
4.0068e-05
4.00699e-05
4.00726e-05
4.0076e-05
4.00799e-05
4.00844e-05
4.00893e-05
4.00947e-05
4.01007e-05
4.01073e-05
4.01147e-05
4.01229e-05
4.01323e-05
4.01437e-05
4.0157e-05
4.01729e-05
4.01989e-05
4.02121e-05
4.00771e-05
4.03143e-05
4.18872e-05
4.38905e-05
3.30477e-05
7.19237e-06
0
0
0.00105025
0.0331716
0.209195
0.400049
0.489703
0.495126
0.407779
4.00746e-05
4.00699e-05
4.00649e-05
4.00599e-05
4.00625e-05
4.00653e-05
4.00667e-05
4.00672e-05
4.00679e-05
4.00688e-05
4.007e-05
4.00713e-05
4.00727e-05
4.00741e-05
4.00756e-05
4.00771e-05
4.00789e-05
4.00809e-05
4.00832e-05
4.00859e-05
4.0089e-05
4.00926e-05
4.00969e-05
4.01019e-05
4.01078e-05
4.01148e-05
4.0123e-05
4.01325e-05
4.01435e-05
4.01563e-05
4.0171e-05
4.01882e-05
4.0208e-05
4.02329e-05
4.02452e-05
4.03673e-05
3.99035e-05
4.21477e-05
3.7387e-05
4.0071e-05
4.00698e-05
4.0067e-05
4.00647e-05
4.00633e-05
4.00631e-05
4.00639e-05
4.00655e-05
4.00678e-05
4.00708e-05
4.00743e-05
4.00783e-05
4.00828e-05
4.00878e-05
4.00934e-05
4.00996e-05
4.01066e-05
4.01145e-05
4.01234e-05
4.01337e-05
4.01461e-05
4.01603e-05
4.01776e-05
4.02113e-05
4.02079e-05
4.00924e-05
4.02135e-05
4.18014e-05
4.45949e-05
2.83318e-05
4.51559e-06
0
0
0.00982315
0.0787335
0.219737
0.323022
0.376258
0.338652
4.00699e-05
4.00653e-05
4.00602e-05
4.00555e-05
4.00581e-05
4.0061e-05
4.00629e-05
4.00639e-05
4.00647e-05
4.00656e-05
4.00667e-05
4.00679e-05
4.00692e-05
4.00704e-05
4.00716e-05
4.00729e-05
4.00744e-05
4.0076e-05
4.00778e-05
4.008e-05
4.00825e-05
4.00855e-05
4.0089e-05
4.00932e-05
4.00982e-05
4.01041e-05
4.0111e-05
4.01191e-05
4.01286e-05
4.01394e-05
4.0152e-05
4.01665e-05
4.01836e-05
4.02041e-05
4.02266e-05
4.02654e-05
4.02253e-05
4.05083e-05
4.05571e-05
4.00661e-05
4.00652e-05
4.00625e-05
4.00607e-05
4.00596e-05
4.00593e-05
4.00598e-05
4.00611e-05
4.0063e-05
4.00656e-05
4.00687e-05
4.00723e-05
4.00763e-05
4.00809e-05
4.00861e-05
4.00918e-05
4.00983e-05
4.01056e-05
4.01138e-05
4.01233e-05
4.01347e-05
4.01481e-05
4.01637e-05
4.01853e-05
4.02176e-05
4.02095e-05
4.01482e-05
3.99588e-05
4.23046e-05
4.54067e-05
1.62502e-05
6.64044e-07
0
0.000437139
0.0136862
0.0769017
0.144105
0.208393
0.209228
4.00646e-05
4.00601e-05
4.00551e-05
4.00508e-05
4.00532e-05
4.00564e-05
4.00587e-05
4.00602e-05
4.00613e-05
4.00624e-05
4.00636e-05
4.00648e-05
4.0066e-05
4.00671e-05
4.00682e-05
4.00694e-05
4.00707e-05
4.00721e-05
4.00736e-05
4.00754e-05
4.00774e-05
4.00798e-05
4.00827e-05
4.00862e-05
4.00904e-05
4.00954e-05
4.01014e-05
4.01085e-05
4.01168e-05
4.01264e-05
4.01377e-05
4.01507e-05
4.0166e-05
4.01842e-05
4.02057e-05
4.02286e-05
4.02767e-05
4.02083e-05
4.06628e-05
4.0061e-05
4.00603e-05
4.0058e-05
4.00566e-05
4.00557e-05
4.00554e-05
4.00557e-05
4.00567e-05
4.00584e-05
4.00605e-05
4.00632e-05
4.00664e-05
4.00701e-05
4.00743e-05
4.00791e-05
4.00844e-05
4.00905e-05
4.00974e-05
4.01051e-05
4.01139e-05
4.01244e-05
4.01367e-05
4.01513e-05
4.01687e-05
4.01929e-05
4.02148e-05
4.0268e-05
4.00558e-05
3.97876e-05
4.44807e-05
4.01532e-05
7.49916e-06
0
0
0.00347774
0.0136671
0.0335297
0.0626075
0.0633138
4.00591e-05
4.00549e-05
4.00501e-05
4.00461e-05
4.00482e-05
4.00515e-05
4.00542e-05
4.00562e-05
4.00577e-05
4.0059e-05
4.00603e-05
4.00617e-05
4.00629e-05
4.00641e-05
4.00653e-05
4.00664e-05
4.00677e-05
4.0069e-05
4.00704e-05
4.00719e-05
4.00736e-05
4.00755e-05
4.00779e-05
4.00807e-05
4.00842e-05
4.00883e-05
4.00934e-05
4.00994e-05
4.01065e-05
4.01148e-05
4.01245e-05
4.01358e-05
4.01492e-05
4.01652e-05
4.01841e-05
4.0206e-05
4.02428e-05
4.02281e-05
4.04265e-05
4.00559e-05
4.00555e-05
4.00535e-05
4.00524e-05
4.00518e-05
4.00515e-05
4.00518e-05
4.00526e-05
4.0054e-05
4.00557e-05
4.0058e-05
4.00608e-05
4.0064e-05
4.00678e-05
4.00722e-05
4.00772e-05
4.00829e-05
4.00893e-05
4.00965e-05
4.01048e-05
4.01146e-05
4.01261e-05
4.01397e-05
4.01553e-05
4.01753e-05
4.01969e-05
4.02215e-05
4.0343e-05
3.98046e-05
4.00692e-05
4.72652e-05
2.83954e-05
1.17039e-06
0
1.07496e-05
0.000333683
0.00280435
0.0078575
0.00865633
4.0054e-05
4.00502e-05
4.00458e-05
4.00419e-05
4.00436e-05
4.00468e-05
4.00496e-05
4.00519e-05
4.00538e-05
4.00555e-05
4.0057e-05
4.00584e-05
4.00598e-05
4.00611e-05
4.00624e-05
4.00637e-05
4.00651e-05
4.00665e-05
4.00679e-05
4.00694e-05
4.00709e-05
4.00725e-05
4.00743e-05
4.00766e-05
4.00793e-05
4.00827e-05
4.00869e-05
4.0092e-05
4.0098e-05
4.01052e-05
4.01137e-05
4.01235e-05
4.01353e-05
4.01494e-05
4.01661e-05
4.01866e-05
4.02129e-05
4.02354e-05
4.0314e-05
4.00513e-05
4.0051e-05
4.00493e-05
4.00484e-05
4.0048e-05
4.00479e-05
4.00482e-05
4.00488e-05
4.00499e-05
4.00513e-05
4.00531e-05
4.00554e-05
4.00582e-05
4.00616e-05
4.00656e-05
4.00701e-05
4.00754e-05
4.00814e-05
4.00883e-05
4.00961e-05
4.01053e-05
4.0116e-05
4.01287e-05
4.01431e-05
4.016e-05
4.01854e-05
4.01809e-05
4.03004e-05
4.03582e-05
3.897e-05
4.35899e-05
4.41868e-05
7.94032e-06
0
0
7.44305e-05
0.000640295
0.000257061
0.00200069
4.00497e-05
4.00464e-05
4.00425e-05
4.00385e-05
4.00397e-05
4.00425e-05
4.00453e-05
4.00477e-05
4.00498e-05
4.00518e-05
4.00535e-05
4.00552e-05
4.00567e-05
4.00583e-05
4.00598e-05
4.00613e-05
4.00627e-05
4.00643e-05
4.00658e-05
4.00672e-05
4.00686e-05
4.007e-05
4.00715e-05
4.00733e-05
4.00755e-05
4.00783e-05
4.00817e-05
4.00859e-05
4.0091e-05
4.00971e-05
4.01044e-05
4.01129e-05
4.01231e-05
4.01356e-05
4.01503e-05
4.01688e-05
4.01907e-05
4.02188e-05
4.02714e-05
4.00478e-05
4.00474e-05
4.00458e-05
4.0045e-05
4.00447e-05
4.00446e-05
4.00449e-05
4.00454e-05
4.00462e-05
4.00473e-05
4.00487e-05
4.00506e-05
4.00529e-05
4.00558e-05
4.00593e-05
4.00634e-05
4.00683e-05
4.00738e-05
4.00802e-05
4.00875e-05
4.00962e-05
4.01063e-05
4.01181e-05
4.01319e-05
4.01464e-05
4.01698e-05
4.01803e-05
4.01917e-05
4.04579e-05
3.97693e-05
3.97624e-05
4.68731e-05
2.96889e-05
1.80066e-06
0
0
0
5.83257e-05
0
4.00467e-05
4.00441e-05
4.00404e-05
4.00363e-05
4.00368e-05
4.00391e-05
4.00416e-05
4.00439e-05
4.00461e-05
4.00482e-05
4.00501e-05
4.00519e-05
4.00537e-05
4.00554e-05
4.00571e-05
4.00588e-05
4.00604e-05
4.0062e-05
4.00635e-05
4.00651e-05
4.00665e-05
4.00678e-05
4.00691e-05
4.00707e-05
4.00725e-05
4.00747e-05
4.00775e-05
4.0081e-05
4.00853e-05
4.00905e-05
4.00967e-05
4.01041e-05
4.0113e-05
4.01239e-05
4.01368e-05
4.01532e-05
4.01724e-05
4.01985e-05
4.02453e-05
4.00456e-05
4.0045e-05
4.00433e-05
4.00426e-05
4.00422e-05
4.0042e-05
4.00423e-05
4.00427e-05
4.00432e-05
4.00439e-05
4.0045e-05
4.00464e-05
4.00483e-05
4.00507e-05
4.00536e-05
4.00572e-05
4.00615e-05
4.00666e-05
4.00725e-05
4.00793e-05
4.00873e-05
4.00968e-05
4.01078e-05
4.01207e-05
4.01346e-05
4.01524e-05
4.01779e-05
4.01611e-05
4.03042e-05
4.03746e-05
3.91194e-05
4.28775e-05
4.49464e-05
2.76288e-06
1.1117e-07
0
0
0
0
4.00453e-05
4.00431e-05
4.00396e-05
4.00354e-05
4.00351e-05
4.00367e-05
4.00387e-05
4.00408e-05
4.00428e-05
4.00448e-05
4.00468e-05
4.00487e-05
4.00506e-05
4.00525e-05
4.00543e-05
4.00561e-05
4.00579e-05
4.00596e-05
4.00612e-05
4.00628e-05
4.00643e-05
4.00657e-05
4.0067e-05
4.00683e-05
4.00698e-05
4.00717e-05
4.00741e-05
4.0077e-05
4.00806e-05
4.0085e-05
4.00903e-05
4.00967e-05
4.01044e-05
4.01139e-05
4.01253e-05
4.01397e-05
4.01566e-05
4.01801e-05
4.02222e-05
4.00448e-05
4.00438e-05
4.00421e-05
4.00412e-05
4.00406e-05
4.00403e-05
4.00404e-05
4.00406e-05
4.00409e-05
4.00413e-05
4.0042e-05
4.00431e-05
4.00445e-05
4.00463e-05
4.00487e-05
4.00517e-05
4.00555e-05
4.006e-05
4.00653e-05
4.00715e-05
4.00789e-05
4.00876e-05
4.00978e-05
4.01098e-05
4.01233e-05
4.01377e-05
4.01626e-05
4.01682e-05
4.0189e-05
4.04256e-05
3.98172e-05
4.00393e-05
4.54533e-05
3.2709e-05
6.74226e-06
9.45189e-07
0
0
0
4.00452e-05
4.00435e-05
4.004e-05
4.00356e-05
4.00346e-05
4.00355e-05
4.00369e-05
4.00385e-05
4.00402e-05
4.0042e-05
4.00438e-05
4.00457e-05
4.00476e-05
4.00496e-05
4.00515e-05
4.00534e-05
4.00553e-05
4.00571e-05
4.00588e-05
4.00605e-05
4.00621e-05
4.00636e-05
4.00648e-05
4.0066e-05
4.00674e-05
4.00691e-05
4.00711e-05
4.00735e-05
4.00766e-05
4.00804e-05
4.0085e-05
4.00905e-05
4.00972e-05
4.01055e-05
4.01154e-05
4.01281e-05
4.01429e-05
4.01641e-05
4.02011e-05
4.00452e-05
4.00438e-05
4.00419e-05
4.00408e-05
4.00401e-05
4.00396e-05
4.00394e-05
4.00394e-05
4.00395e-05
4.00396e-05
4.004e-05
4.00406e-05
4.00416e-05
4.00429e-05
4.00447e-05
4.00471e-05
4.00502e-05
4.0054e-05
4.00588e-05
4.00643e-05
4.00709e-05
4.00789e-05
4.00883e-05
4.00993e-05
4.01121e-05
4.01255e-05
4.01445e-05
4.01667e-05
4.01594e-05
4.02891e-05
4.02808e-05
3.96181e-05
4.196e-05
4.31769e-05
2.62673e-05
4.55943e-06
4.63648e-06
0
0
4.00462e-05
4.00446e-05
4.00411e-05
4.00366e-05
4.00351e-05
4.00353e-05
4.00361e-05
4.00371e-05
4.00384e-05
4.00398e-05
4.00414e-05
4.00432e-05
4.0045e-05
4.00469e-05
4.00488e-05
4.00507e-05
4.00526e-05
4.00545e-05
4.00564e-05
4.00581e-05
4.00598e-05
4.00613e-05
4.00626e-05
4.00638e-05
4.00651e-05
4.00666e-05
4.00684e-05
4.00705e-05
4.00732e-05
4.00764e-05
4.00804e-05
4.00852e-05
4.00911e-05
4.00984e-05
4.0107e-05
4.01183e-05
4.01311e-05
4.01503e-05
4.01825e-05
4.00463e-05
4.00446e-05
4.00424e-05
4.00412e-05
4.00403e-05
4.00396e-05
4.00393e-05
4.0039e-05
4.00389e-05
4.00388e-05
4.00389e-05
4.00391e-05
4.00396e-05
4.00405e-05
4.00417e-05
4.00435e-05
4.00459e-05
4.00491e-05
4.0053e-05
4.00579e-05
4.00637e-05
4.00708e-05
4.00794e-05
4.00895e-05
4.01011e-05
4.0114e-05
4.01295e-05
4.01528e-05
4.01581e-05
4.01981e-05
4.03392e-05
3.99798e-05
4.02242e-05
4.27879e-05
3.99676e-05
2.96572e-05
2.14073e-05
7.73392e-07
0
4.00475e-05
4.0046e-05
4.00426e-05
4.00381e-05
4.00363e-05
4.00359e-05
4.00361e-05
4.00366e-05
4.00374e-05
4.00385e-05
4.00397e-05
4.00412e-05
4.00428e-05
4.00445e-05
4.00464e-05
4.00483e-05
4.00502e-05
4.00521e-05
4.00539e-05
4.00558e-05
4.00575e-05
4.0059e-05
4.00604e-05
4.00615e-05
4.00627e-05
4.00642e-05
4.00658e-05
4.00677e-05
4.00701e-05
4.0073e-05
4.00765e-05
4.00808e-05
4.0086e-05
4.00924e-05
4.00999e-05
4.01099e-05
4.01211e-05
4.01384e-05
4.01662e-05
4.00475e-05
4.00456e-05
4.00434e-05
4.00421e-05
4.0041e-05
4.00402e-05
4.00397e-05
4.00393e-05
4.0039e-05
4.00388e-05
4.00385e-05
4.00385e-05
4.00387e-05
4.00391e-05
4.00398e-05
4.0041e-05
4.00428e-05
4.00452e-05
4.00484e-05
4.00525e-05
4.00575e-05
4.00637e-05
4.00713e-05
4.00803e-05
4.00909e-05
4.01028e-05
4.01169e-05
4.01363e-05
4.0151e-05
4.01692e-05
4.02666e-05
4.01841e-05
4.00512e-05
4.11873e-05
4.11657e-05
3.89887e-05
4.34289e-05
1.63866e-06
0
4.00486e-05
4.00472e-05
4.0044e-05
4.00397e-05
4.00377e-05
4.0037e-05
4.00368e-05
4.00369e-05
4.00372e-05
4.00379e-05
4.00387e-05
4.00398e-05
4.00412e-05
4.00427e-05
4.00444e-05
4.00461e-05
4.00479e-05
4.00498e-05
4.00516e-05
4.00534e-05
4.00551e-05
4.00567e-05
4.00582e-05
4.00593e-05
4.00604e-05
4.00617e-05
4.00633e-05
4.00651e-05
4.00673e-05
4.00699e-05
4.00731e-05
4.00769e-05
4.00815e-05
4.00872e-05
4.00939e-05
4.01028e-05
4.01125e-05
4.01283e-05
4.01521e-05
4.00485e-05
4.00466e-05
4.00444e-05
4.00431e-05
4.0042e-05
4.00411e-05
4.00405e-05
4.004e-05
4.00396e-05
4.00392e-05
4.00389e-05
4.00386e-05
4.00385e-05
4.00386e-05
4.00389e-05
4.00396e-05
4.00407e-05
4.00425e-05
4.00449e-05
4.00482e-05
4.00523e-05
4.00575e-05
4.0064e-05
4.0072e-05
4.00814e-05
4.00921e-05
4.01054e-05
4.01219e-05
4.01368e-05
4.01593e-05
4.02136e-05
4.01863e-05
4.02237e-05
4.0647e-05
3.98171e-05
4.04842e-05
5.05944e-05
1.99301e-06
0
4.00494e-05
4.00481e-05
4.00451e-05
4.00412e-05
4.00391e-05
4.00383e-05
4.00379e-05
4.00376e-05
4.00376e-05
4.00379e-05
4.00384e-05
4.00392e-05
4.00402e-05
4.00414e-05
4.00428e-05
4.00444e-05
4.0046e-05
4.00478e-05
4.00495e-05
4.00512e-05
4.00529e-05
4.00545e-05
4.00559e-05
4.00571e-05
4.00581e-05
4.00593e-05
4.00607e-05
4.00625e-05
4.00645e-05
4.0067e-05
4.00699e-05
4.00734e-05
4.00776e-05
4.00827e-05
4.00887e-05
4.00967e-05
4.01054e-05
4.01197e-05
4.014e-05
4.00491e-05
4.00473e-05
4.00452e-05
4.0044e-05
4.00429e-05
4.0042e-05
4.00414e-05
4.00409e-05
4.00405e-05
4.00401e-05
4.00397e-05
4.00392e-05
4.00389e-05
4.00387e-05
4.00387e-05
4.0039e-05
4.00397e-05
4.00408e-05
4.00426e-05
4.00451e-05
4.00484e-05
4.00526e-05
4.00579e-05
4.00646e-05
4.00728e-05
4.00822e-05
4.00943e-05
4.01093e-05
4.01214e-05
4.01475e-05
4.01919e-05
4.01364e-05
4.02868e-05
4.06646e-05
3.89761e-05
4.08293e-05
5.05838e-05
2.07928e-06
0
4.00498e-05
4.00485e-05
4.00458e-05
4.00422e-05
4.00403e-05
4.00395e-05
4.0039e-05
4.00386e-05
4.00384e-05
4.00384e-05
4.00386e-05
4.0039e-05
4.00397e-05
4.00406e-05
4.00418e-05
4.00431e-05
4.00445e-05
4.00461e-05
4.00477e-05
4.00493e-05
4.00509e-05
4.00524e-05
4.00538e-05
4.0055e-05
4.00558e-05
4.00569e-05
4.00582e-05
4.00598e-05
4.00618e-05
4.00641e-05
4.00669e-05
4.00702e-05
4.00741e-05
4.00788e-05
4.00844e-05
4.00917e-05
4.00994e-05
4.01125e-05
4.01297e-05
4.00493e-05
4.00476e-05
4.00457e-05
4.00446e-05
4.00437e-05
4.00428e-05
4.00422e-05
4.00418e-05
4.00414e-05
4.0041e-05
4.00406e-05
4.00402e-05
4.00397e-05
4.00394e-05
4.00392e-05
4.00392e-05
4.00394e-05
4.00401e-05
4.00413e-05
4.00431e-05
4.00456e-05
4.00489e-05
4.00531e-05
4.00585e-05
4.00652e-05
4.00733e-05
4.00839e-05
4.00976e-05
4.01074e-05
4.01333e-05
4.01782e-05
4.0099e-05
4.02655e-05
4.07385e-05
3.87403e-05
4.09098e-05
4.9695e-05
2.1306e-06
0
4.00499e-05
4.00487e-05
4.00461e-05
4.00429e-05
4.00412e-05
4.00404e-05
4.00399e-05
4.00395e-05
4.00392e-05
4.00391e-05
4.00391e-05
4.00393e-05
4.00397e-05
4.00404e-05
4.00412e-05
4.00423e-05
4.00435e-05
4.00448e-05
4.00462e-05
4.00477e-05
4.00492e-05
4.00506e-05
4.00519e-05
4.00529e-05
4.00538e-05
4.00547e-05
4.00558e-05
4.00573e-05
4.00591e-05
4.00613e-05
4.0064e-05
4.00671e-05
4.00708e-05
4.00753e-05
4.00806e-05
4.00874e-05
4.00944e-05
4.01065e-05
4.01209e-05
4.00492e-05
4.00477e-05
4.0046e-05
4.0045e-05
4.00441e-05
4.00434e-05
4.00429e-05
4.00425e-05
4.00422e-05
4.00419e-05
4.00416e-05
4.00412e-05
4.00408e-05
4.00404e-05
4.004e-05
4.00398e-05
4.00398e-05
4.00401e-05
4.00408e-05
4.00421e-05
4.00439e-05
4.00463e-05
4.00494e-05
4.00536e-05
4.00589e-05
4.00655e-05
4.00746e-05
4.00863e-05
4.0095e-05
4.01192e-05
4.01614e-05
4.00779e-05
4.02368e-05
4.07443e-05
3.86981e-05
4.08454e-05
4.9417e-05
4.81277e-06
0
4.00498e-05
4.00487e-05
4.00462e-05
4.00433e-05
4.00417e-05
4.00411e-05
4.00407e-05
4.00403e-05
4.004e-05
4.00398e-05
4.00397e-05
4.00397e-05
4.004e-05
4.00404e-05
4.00411e-05
4.00419e-05
4.00428e-05
4.0044e-05
4.00452e-05
4.00464e-05
4.00477e-05
4.0049e-05
4.00501e-05
4.00511e-05
4.00519e-05
4.00526e-05
4.00535e-05
4.00548e-05
4.00565e-05
4.00586e-05
4.00611e-05
4.00641e-05
4.00677e-05
4.0072e-05
4.00771e-05
4.00836e-05
4.00901e-05
4.01014e-05
4.01137e-05
4.0049e-05
4.00476e-05
4.0046e-05
4.00452e-05
4.00444e-05
4.00437e-05
4.00433e-05
4.0043e-05
4.00428e-05
4.00427e-05
4.00425e-05
4.00422e-05
4.00419e-05
4.00414e-05
4.0041e-05
4.00407e-05
4.00405e-05
4.00406e-05
4.0041e-05
4.00418e-05
4.00431e-05
4.00448e-05
4.0047e-05
4.00499e-05
4.00539e-05
4.00589e-05
4.00664e-05
4.00762e-05
4.00838e-05
4.01055e-05
4.0143e-05
4.00648e-05
4.02173e-05
4.07082e-05
3.86742e-05
4.05e-05
5.06147e-05
1.28861e-05
5.59284e-07
4.00495e-05
4.00484e-05
4.00459e-05
4.00433e-05
4.00419e-05
4.00413e-05
4.0041e-05
4.00408e-05
4.00405e-05
4.00403e-05
4.00402e-05
4.00402e-05
4.00403e-05
4.00407e-05
4.00411e-05
4.00418e-05
4.00425e-05
4.00434e-05
4.00444e-05
4.00455e-05
4.00466e-05
4.00476e-05
4.00486e-05
4.00495e-05
4.00501e-05
4.00506e-05
4.00514e-05
4.00525e-05
4.0054e-05
4.00559e-05
4.00583e-05
4.00612e-05
4.00646e-05
4.00688e-05
4.00738e-05
4.008e-05
4.00862e-05
4.00971e-05
4.01075e-05
4.00488e-05
4.00474e-05
4.0046e-05
4.00452e-05
4.00446e-05
4.0044e-05
4.00436e-05
4.00434e-05
4.00433e-05
4.00433e-05
4.00432e-05
4.00431e-05
4.00428e-05
4.00425e-05
4.00421e-05
4.00418e-05
4.00415e-05
4.00414e-05
4.00416e-05
4.00421e-05
4.0043e-05
4.00441e-05
4.00456e-05
4.00475e-05
4.00503e-05
4.00538e-05
4.00595e-05
4.00675e-05
4.00733e-05
4.00924e-05
4.01277e-05
4.00514e-05
4.01984e-05
4.06698e-05
3.84145e-05
4.20891e-05
4.87215e-05
2.34912e-05
1.06297e-06
4.00491e-05
4.00478e-05
4.00453e-05
4.00428e-05
4.00416e-05
4.00412e-05
4.0041e-05
4.00408e-05
4.00407e-05
4.00406e-05
4.00406e-05
4.00406e-05
4.00407e-05
4.00409e-05
4.00413e-05
4.00418e-05
4.00424e-05
4.00432e-05
4.0044e-05
4.00448e-05
4.00457e-05
4.00466e-05
4.00474e-05
4.00481e-05
4.00486e-05
4.00489e-05
4.00494e-05
4.00503e-05
4.00516e-05
4.00533e-05
4.00556e-05
4.00583e-05
4.00616e-05
4.00657e-05
4.00705e-05
4.00765e-05
4.00826e-05
4.00931e-05
4.01023e-05
4.00484e-05
4.00472e-05
4.00459e-05
4.00453e-05
4.00447e-05
4.00442e-05
4.00439e-05
4.00437e-05
4.00437e-05
4.00438e-05
4.00438e-05
4.00438e-05
4.00437e-05
4.00435e-05
4.00431e-05
4.00428e-05
4.00426e-05
4.00424e-05
4.00424e-05
4.00427e-05
4.00433e-05
4.00441e-05
4.0045e-05
4.00462e-05
4.00479e-05
4.00501e-05
4.00541e-05
4.00606e-05
4.00637e-05
4.00807e-05
4.01156e-05
4.00342e-05
4.01782e-05
4.0646e-05
3.82042e-05
4.37907e-05
4.52753e-05
2.41715e-05
1.13971e-06
4.00485e-05
4.0047e-05
4.00444e-05
4.0042e-05
4.00408e-05
4.00405e-05
4.00404e-05
4.00404e-05
4.00405e-05
4.00405e-05
4.00406e-05
4.00407e-05
4.00409e-05
4.00411e-05
4.00415e-05
4.00419e-05
4.00425e-05
4.00431e-05
4.00437e-05
4.00444e-05
4.00451e-05
4.00458e-05
4.00464e-05
4.00469e-05
4.00472e-05
4.00474e-05
4.00478e-05
4.00484e-05
4.00495e-05
4.0051e-05
4.0053e-05
4.00556e-05
4.00587e-05
4.00627e-05
4.00673e-05
4.00731e-05
4.0079e-05
4.00893e-05
4.00976e-05
4.00479e-05
4.00469e-05
4.00459e-05
4.00454e-05
4.00449e-05
4.00445e-05
4.00443e-05
4.00442e-05
4.00442e-05
4.00443e-05
4.00444e-05
4.00445e-05
4.00445e-05
4.00444e-05
4.00441e-05
4.00438e-05
4.00436e-05
4.00435e-05
4.00434e-05
4.00436e-05
4.0044e-05
4.00445e-05
4.0045e-05
4.00456e-05
4.00466e-05
4.00477e-05
4.00501e-05
4.0055e-05
4.00558e-05
4.00705e-05
4.0105e-05
4.00167e-05
4.01589e-05
4.06332e-05
3.81012e-05
4.43223e-05
4.42935e-05
2.38451e-05
1.17091e-06
4.00477e-05
4.00461e-05
4.00434e-05
4.00409e-05
4.00397e-05
4.00394e-05
4.00394e-05
4.00396e-05
4.00398e-05
4.004e-05
4.00402e-05
4.00405e-05
4.00408e-05
4.00411e-05
4.00415e-05
4.0042e-05
4.00425e-05
4.0043e-05
4.00436e-05
4.00441e-05
4.00447e-05
4.00452e-05
4.00457e-05
4.0046e-05
4.00461e-05
4.00462e-05
4.00463e-05
4.00467e-05
4.00475e-05
4.00488e-05
4.00506e-05
4.0053e-05
4.00559e-05
4.00597e-05
4.00642e-05
4.00698e-05
4.00755e-05
4.00855e-05
4.0093e-05
4.00473e-05
4.00466e-05
4.00458e-05
4.00456e-05
4.00453e-05
4.0045e-05
4.00448e-05
4.00448e-05
4.00448e-05
4.0045e-05
4.00451e-05
4.00453e-05
4.00453e-05
4.00452e-05
4.00451e-05
4.00448e-05
4.00446e-05
4.00445e-05
4.00445e-05
4.00446e-05
4.00448e-05
4.00451e-05
4.00454e-05
4.00456e-05
4.0046e-05
4.00463e-05
4.00474e-05
4.00508e-05
4.00499e-05
4.00614e-05
4.00944e-05
4.00033e-05
4.01429e-05
4.06157e-05
3.80486e-05
4.44262e-05
4.44411e-05
2.38045e-05
1.21664e-06
4.00469e-05
4.00455e-05
4.00427e-05
4.004e-05
4.00386e-05
4.00381e-05
4.00381e-05
4.00383e-05
4.00386e-05
4.0039e-05
4.00394e-05
4.00398e-05
4.00403e-05
4.00408e-05
4.00413e-05
4.00418e-05
4.00423e-05
4.00429e-05
4.00434e-05
4.00439e-05
4.00444e-05
4.00448e-05
4.00451e-05
4.00452e-05
4.00452e-05
4.00451e-05
4.0045e-05
4.00452e-05
4.00458e-05
4.00468e-05
4.00484e-05
4.00505e-05
4.00533e-05
4.00569e-05
4.00611e-05
4.00665e-05
4.0072e-05
4.00817e-05
4.00887e-05
4.00467e-05
4.00463e-05
4.00458e-05
4.00458e-05
4.00457e-05
4.00456e-05
4.00455e-05
4.00456e-05
4.00457e-05
4.00458e-05
4.0046e-05
4.00461e-05
4.00462e-05
4.00462e-05
4.00461e-05
4.00458e-05
4.00457e-05
4.00455e-05
4.00455e-05
4.00456e-05
4.00458e-05
4.0046e-05
4.00461e-05
4.0046e-05
4.00459e-05
4.00457e-05
4.00457e-05
4.00479e-05
4.00457e-05
4.00535e-05
4.00842e-05
3.99959e-05
4.01266e-05
4.0587e-05
3.80627e-05
4.43148e-05
4.42825e-05
2.38096e-05
1.26598e-06
4.00465e-05
4.00454e-05
4.00427e-05
4.00397e-05
4.00379e-05
4.0037e-05
4.00368e-05
4.00369e-05
4.00372e-05
4.00377e-05
4.00382e-05
4.00388e-05
4.00394e-05
4.004e-05
4.00407e-05
4.00413e-05
4.00419e-05
4.00425e-05
4.00431e-05
4.00436e-05
4.0044e-05
4.00444e-05
4.00445e-05
4.00445e-05
4.00444e-05
4.00441e-05
4.00438e-05
4.00438e-05
4.00442e-05
4.00451e-05
4.00464e-05
4.00483e-05
4.00509e-05
4.00542e-05
4.00582e-05
4.00633e-05
4.00686e-05
4.0078e-05
4.00844e-05
4.00466e-05
4.00462e-05
4.00459e-05
4.00462e-05
4.00463e-05
4.00463e-05
4.00464e-05
4.00465e-05
4.00467e-05
4.00469e-05
4.00471e-05
4.00472e-05
4.00473e-05
4.00473e-05
4.00472e-05
4.0047e-05
4.00468e-05
4.00466e-05
4.00466e-05
4.00466e-05
4.00468e-05
4.00469e-05
4.00469e-05
4.00465e-05
4.0046e-05