/*--------------------------------*- C++ -*----------------------------------*\
| =========                 |                                                 |
| \\      /  F ield         | OpenFOAM: The Open Source CFD Toolbox           |
|  \\    /   O peration     | Version:  2312                                  |
|   \\  /    A nd           | Website:  www.openfoam.com                      |
|    \\/     M anipulation  |                                                 |
\*---------------------------------------------------------------------------*/
FoamFile
{
    version     2.0;
    format      ascii;
    arch        "LSB;label=32;scalar=64";
    class       volScalarField;
    location    "50";
    object      p;
}
// * * * * * * * * * * * * * * * * * * * * * * * * * * * * * * * * * * * * * //

dimensions      [0 2 -2 0 0 0 0];

internalField   nonuniform List<scalar> 
10720
(
162.682
113.109
52.9047
-10.777
-74.748
-142.271
-206.254
-264.347
-317.771
-363.534
-402.284
-434.451
-460.105
-479.355
-492.748
-500.205
-502.322
-497.782
-487.105
-469.381
-446.487
-421.449
-401.382
-386.391
-368.586
-343.326
-312.099
-278.9
-247.181
-218.699
-194.075
-170.704
-148.692
-137.096
-138.304
-129.014
-91.3577
-40.644
-10.9591
208.144
247.931
285.516
315.148
331.841
336.628
331.824
315.023
289.07
258.849
228.139
199.426
173.428
150.517
130.759
112.959
96.8298
81.6718
67.0793
52.3374
37.3813
21.8639
6.01608
-9.54007
-22.489
-31.743
-38.7702
-43.9995
-47.4239
-49.1675
-49.3066
-47.8309
-44.6431
-39.6311
-32.7719
-23.5366
-11.3663
7.13222
37.9609
193.804
156.502
112.727
63.9256
11.5667
-44.0524
-100.32
-155.315
-208.045
-256.813
-300.878
-339.731
-372.973
-400.542
-422.34
-437.967
-447.171
-449.703
-446.017
-435.945
-421.026
-404.123
-390.773
-380.75
-366.172
-342.151
-311.343
-278.448
-246.875
-218.441
-193.895
-170.627
-148.553
-136.787
-138.067
-129.031
-91.5051
-40.7059
-11.3029
225.953
255.12
282.15
304.68
319.006
324.449
320.686
307.581
287.445
263.057
236.887
210.883
186.131
163.286
142.624
123.714
106.316
89.9999
74.3829
58.9296
43.4688
27.7551
11.9647
-3.29066
-16.2012
-25.7706
-33.0873
-38.8293
-43.063
-45.6354
-46.4469
-45.4943
-42.7297
-38.0755
-31.5151
-22.5191
-10.5417
7.87523
37.4337
191.654
158.555
119.52
74.9857
26.7822
-24.7786
-78.2395
-131.541
-183.246
-232.114
-276.841
-316.756
-351.367
-380.322
-403.053
-419.488
-429.727
-433.711
-431.608
-423.543
-410.662
-395.228
-381.376
-370.298
-356.673
-335.297
-307.156
-276.116
-245.626
-217.712
-193.419
-170.349
-148.237
-136.288
-137.776
-129.111
-91.7396
-40.816
-11.1573
220.125
245.934
269.571
289.11
301.88
307.6
305.664
295.885
279.684
258.855
235.406
211.187
187.464
165.033
144.329
125.283
107.677
91.1899
75.4649
60.0645
44.7502
29.335
13.9369
-0.920396
-13.8179
-23.7722
-31.4281
-37.3568
-41.6196
-44.1273
-44.8833
-43.9535
-41.3099
-36.8511
-30.513
-21.7293
-9.91915
8.30429
36.6719
188.392
160.396
127.185
89.3655
48.222
3.59867
-43.1995
-90.7194
-137.843
-183.396
-226.258
-265.64
-300.871
-331.405
-356.682
-376.41
-390.653
-399.051
-401.576
-398.376
-390.314
-379.16
-367.82
-357.453
-344.671
-325.527
-300.29
-271.797
-243.079
-216.248
-192.504
-169.713
-147.735
-135.861
-137.689
-129.278
-92.0291
-41
-10.9775
212.495
234.321
254.594
271.673
283.338
289.305
288.851
281.754
269.014
251.918
232.026
210.848
189.469
168.655
148.896
130.313
112.819
96.2394
80.326
64.7681
49.3549
33.9525
18.6512
3.91166
-9.1079
-19.4669
-27.5223
-33.8038
-38.4247
-41.3362
-42.5207
-42.003
-39.7357
-35.6135
-29.5647
-21.0185
-9.39522
8.57788
35.833
180.304
155.559
126.089
92.4213
55.7631
15.6446
-26.8542
-70.5013
-114.47
-157.682
-199.1
-237.91
-273.334
-304.697
-331.382
-352.949
-369.026
-379.377
-383.857
-382.724
-376.745
-367.45
-357.172
-347.02
-334.563
-316.559
-293.086
-266.584
-239.572
-213.994
-191.015
-168.689
-147.109
-135.59
-137.784
-129.473
-92.3467
-41.3201
-10.958
201.644
220.882
238.889
254.221
265.069
271.211
271.913
266.943
256.989
242.969
226.073
207.525
188.234
168.921
150.112
132.057
114.807
98.3054
82.405
66.8928
51.5876
36.3821
21.346
6.87499
-6.09185
-16.6888
-25.0464
-31.5983
-36.4546
-39.5671
-40.9052
-40.5159
-38.382
-34.4205
-28.5545
-20.1977
-8.76898
8.89972
34.97
171.207
149.241
123.03
93.1157
60.6272
24.8957
-13.1161
-52.414
-92.4124
-132.182
-170.854
-207.694
-241.922
-272.834
-299.79
-322.242
-339.73
-352.104
-359.229
-361.227
-358.643
-352.612
-344.804
-336.082
-324.677
-307.996
-286.096
-261.253
-235.75
-211.318
-189.082
-167.352
-146.411
-135.401
-137.899
-129.563
-92.6058
-41.7304
-10.9841
190.201
207.308
223.488
237.455
247.657
253.9
255.466
252.133
244.402
232.956
218.726
202.708
185.636
168.13
150.695
133.618
117.027
100.951
85.3221
70.0109
54.8874
39.8816
25.0658
10.7965
-2.1388
-12.9516
-21.6046
-28.4272
-33.5312
-36.8871
-38.4806
-38.3679
-36.5381
-32.8984
-27.347
-19.2767
-8.11897
9.18557
34.0384
161.462
141.67
118.024
91.0527
61.859
29.6427
-4.74742
-40.4558
-77.0993
-113.877
-150.065
-185.028
-218.022
-248.354
-275.38
-298.497
-317.209
-331.146
-340.108
-344.098
-343.579
-339.499
-333.168
-325.339
-314.795
-299.454
-279.219
-256.018
-231.945
-208.577
-186.991
-165.901
-145.773
-135.275
-137.819
-129.361
-92.6978
-42.1721
-11.0006
178.622
194.063
208.803
221.678
231.339
237.619
239.832
237.762
231.798
222.46
210.493
196.703
181.676
165.924
149.898
133.884
118.053
102.501
87.2308
72.1863
57.2971
42.5354
27.9835
13.9613
1.12942
-9.80447
-18.6878
-25.7506
-31.0959
-34.7038
-36.5569
-36.7001
-35.1208
-31.7241
-26.399
-18.5342
-7.58819
9.36185
33.0409
151.743
133.76
112.272
87.7954
61.4115
32.2518
1.08732
-31.3363
-64.773
-98.5529
-132.066
-164.79
-196.063
-225.239
-251.688
-274.806
-294.04
-308.984
-319.446
-325.379
-327.071
-325.191
-320.664
-314.072
-304.617
-290.72
-272.23
-250.743
-228.135
-205.851
-184.921
-164.478
-145.212
-135.083
-137.334
-128.694
-92.525
-42.561
-10.913
167.379
181.451
195
206.969
216.16
222.424
225.114
224.02
219.457
211.842
201.78
189.943
176.792
162.744
148.181
133.359
118.464
103.626
88.8954
74.273
59.7403
45.3079
31.0707
17.3202
4.62669
-6.37453
-15.4543
-22.7462
-28.3323
-32.1935
-34.3046
-34.7042
-33.3838
-30.248
-25.1753
-17.5547
-6.87231
9.64117
32.1414
142.268
125.798
106.12
83.7358
59.7104
33.1475
4.74581
-24.8246
-55.4287
-86.491
-117.51
-148.071
-177.589
-205.482
-231.166
-254.047
-273.562
-289.269
-300.885
-308.284
-311.617
-311.393
-308.308
-302.829
-294.434
-281.922
-265.114
-245.328
-224.205
-203.046
-182.865
-163.089
-144.643
-134.68
-136.168
-127.319
-91.9732
-42.8502
-10.6902
156.633
169.565
182.112
193.315
202.083
208.289
211.33
210.994
207.546
201.335
192.868
182.71
171.232
158.763
145.62
132.015
118.125
104.092
89.9961
75.8804
61.7715
47.7157
33.8205
20.3593
7.83226
-3.18775
-12.4228
-19.92
-25.733
-29.8381
-32.2033
-32.8543
-31.7825
-28.89
-24.0494
-16.6554
-6.23066
9.82909
31.2267
133.195
118.014
99.885
79.2997
57.2976
32.9784
6.99142
-20.0559
-48.1061
-76.6602
-105.31
-133.727
-161.403
-187.838
-212.498
-234.814
-254.246
-270.324
-282.737
-291.332
-296.129
-297.461
-295.808
-291.516
-284.246
-273.102
-257.916
-239.766
-220.091
-200.05
-180.68
-161.675
-143.903
-133.829
-134.154
-125.029
-90.894
-42.9328
-10.2382
146.472
158.433
170.119
180.661
189.042
195.156
198.453
198.705
196.146
191.083
183.947
175.224
165.219
154.191
142.396
130.003
117.165
104.017
90.6529
77.1424
63.5449
49.9334
36.4299
23.2922
10.9722
-0.00946983
-9.34548
-17.0108
-23.0241
-27.3547
-29.9601
-30.8538
-30.0263
-27.3792
-22.7785
-15.6329
-5.50341
10.034
30.3424
124.583
110.517
93.7287
74.698
54.4464
32.076
8.19709
-16.635
-42.4089
-68.6935
-95.1568
-121.545
-147.421
-172.356
-195.878
-217.468
-236.607
-252.833
-265.78
-275.275
-281.223
-283.83
-283.422
-280.247
-274.082
-264.261
-250.622
-234.031
-215.75
-196.817
-178.246
-160.059
-142.962
-132.537
-131.313
-121.756
-89.1689
-42.7307
-9.56003
136.919
148.041
158.977
168.937
176.959
182.958
186.431
187.14
185.294
181.17
175.144
167.644
158.923
149.188
138.646
127.422
115.637
103.411
90.8377
77.9994
64.9764
51.8626
38.7888
26.003
13.9234
3.02824
-6.36113
-14.1604
-20.3524
-24.8947
-27.7343
-28.8698
-28.2874
-25.8868
-21.5298
-14.6423
-4.82399
10.1555
29.4082
116.458
103.369
87.7557
70.0879
51.3643
30.703
8.68059
-14.1876
-37.9279
-62.1591
-86.6084
-111.084
-135.214
-158.64
-180.947
-201.666
-220.32
-236.459
-249.691
-259.828
-266.7
-270.397
-271.112
-269.004
-263.918
-255.361
-243.185
-228.076
-211.134
-193.313
-175.542
-158.135
-141.739
-130.887
-127.933
-117.773
-86.813
-42.1807
-8.68554
127.972
138.358
148.632
158.067
165.755
171.621
175.207
176.271
174.998
171.645
166.546
160.085
152.478
143.893
134.497
124.377
113.622
102.332
90.5878
78.4754
66.0851
53.5225
40.9218
28.5245
16.7236
5.96483
-3.42675
-11.32
-17.6622
-22.396
-25.457
-26.8276
-26.4884
-24.3371
-20.2301
-13.6167
-4.13785
10.2389
28.4346
108.824
96.5967
82.0231
65.5602
48.1846
29.0331
8.65413
-12.4686
-34.3894
-56.7702
-79.3788
-102.077
-124.548
-146.493
-167.559
-187.33
-205.368
-221.25
-234.573
-245.129
-252.701
-257.282
-258.963
-257.83
-253.766
-246.398
-235.595
-221.896
-206.249
-189.532
-172.583
-155.898
-140.235
-129.072
-124.337
-113.443
-84.0396
-41.3424
-7.80561
119.605
129.342
139.022
147.981
155.351
161.075
164.726
166.061
165.249
162.531
158.208
152.629
145.986
138.416
130.055
120.96
111.192
100.827
89.93
78.5773
66.8612
54.8907
42.8012
30.8262
19.3395
8.76091
-0.585569
-8.53408
-14.9982
-19.9034
-23.1729
-24.7727
-24.6747
-22.7737
-18.9221
-12.5946
-3.47
10.2732
27.4221
101.665
90.2082
76.5631
61.1756
44.9984
27.1915
8.27561
-11.2889
-31.5786
-52.287
-73.2167
-94.2695
-115.178
-135.695
-155.524
-174.3
-191.625
-207.109
-220.358
-231.136
-239.217
-244.505
-247.012
-246.762
-243.653
-237.399
-227.884
-215.526
-201.132
-185.497
-169.405
-153.441
-138.437
-127.077
-120.785
-109.123
-81.0654
-40.2925
-7.0553
111.791
120.946
130.091
138.61
145.679
151.251
154.93
156.471
156.031
153.838
150.165
145.336
139.524
132.845
125.413
117.259
108.422
98.9545
88.9019
78.3262
67.3134
55.9692
44.4255
32.9059
21.7687
11.4138
2.15969
-5.80253
-12.3563
-17.4084
-20.8693
-22.6883
-22.8268
-21.177
-17.5845
-11.5555
-2.80779
10.2745
26.3882
94.9631
84.199
71.3903
56.97
41.867
25.2631
7.65974
-10.5083
-29.3293
-48.5227
-67.9215
-87.4587
-106.907
-126.067
-144.685
-162.447
-178.999
-193.983
-207.026
-217.869
-226.286
-232.117
-235.312
-235.845
-233.619
-228.404
-220.093
-209.011
-195.829
-181.258
-166.043
-150.818
-136.435
-124.945
-117.319
-104.952
-78.0693
-39.1348
-6.51925
104.497
113.125
121.781
129.893
136.675
142.089
145.766
147.461
147.32
145.56
142.436
138.245
133.15
127.252
120.647
113.351
105.381
96.769
87.5414
77.7442
67.4506
56.7579
45.7887
34.7539
23.9985
13.9072
4.7899
-3.14503
-9.75554
-14.9289
-18.5633
-20.5906
-20.9605
-19.5616
-16.2344
-10.5173
-2.16053
10.2348
25.3318
88.6929
78.5588
66.5083
52.965
38.8294
23.3118
6.89134
-10.0185
-27.5123
-45.3323
-63.3364
-81.4807
-99.5712
-117.445
-134.894
-151.645
-167.388
-181.799
-194.529
-205.305
-213.911
-220.14
-223.895
-225.111
-223.687
-219.433
-212.247
-202.372
-190.36
-176.841
-162.522
-148.055
-134.221
-122.624
-113.949
-100.965
-75.0668
-37.8946
-6.17767
97.6896
105.837
114.044
121.777
128.284
133.534
137.186
138.993
139.093
137.694
135.031
131.385
126.908
121.693
115.822
109.3
102.129
94.3229
85.8903
76.8601
67.2897
57.2629
46.8893
36.3657
26.0234
16.2325
7.29399
-0.573138
-7.20585
-12.4731
-16.26
-18.4822
-19.0766
-17.9279
-14.8695
-9.47579
-1.532
10.1573
24.2493
82.8312
73.2718
61.9135
49.1704
35.913
21.3801
6.0305
-9.73899
-26.0301
-42.6038
-59.335
-76.1973
-93.0282
-109.694
-126.025
-141.786
-156.705
-170.493
-182.829
-193.432
-202.101
-208.599
-212.795
-214.593
-213.887
-210.512
-204.367
-195.627
-184.741
-172.26
-158.842
-145.123
-131.841
-120.208
-110.627
-97.0725
-72.0398
-36.5952
-6.03078
91.335
99.0411
106.833
114.21
120.454
125.539
129.146
131.032
131.324
130.224
127.951
124.771
120.829
116.21
110.989
105.162
98.7224
91.6674
83.9912
75.7057
66.8513
57.4953
47.7315
37.7394
27.8364
18.3795
9.65928
1.89921
-4.72072
-10.0533
-13.9702
-16.3721
-17.182
-16.2812
-13.4971
-8.4399
-0.92057
10.0439
23.1421
77.353
68.3216
57.6002
45.5892
33.1338
19.4981
5.1246
-9.60959
-24.8058
-40.2432
-55.81
-71.4965
-87.1612
-102.699
-117.967
-132.767
-146.864
-159.998
-171.879
-182.227
-190.851
-197.506
-202.034
-204.316
-204.243
-201.662
-196.472
-188.792
-178.979
-167.51
-154.981
-142.003
-129.241
-117.626
-107.332
-93.2424
-68.9269
-35.2565
-6.00681
85.4013
92.6998
100.105
107.149
113.139
118.057
121.605
123.542
123.989
123.137
121.195
118.414
114.935
110.838
106.19
100.986
95.2094
88.8485
81.8843
74.3129
66.1579
57.469
48.3218
38.8764
29.4351
20.3416
11.8751
4.25973
-2.31275
-7.68092
-11.704
-14.2684
-15.2837
-14.6275
-12.1201
-7.40884
-0.333906
9.89686
22.0114
72.2333
63.69
53.5562
42.2212
30.5008
17.6875
4.20591
-9.58102
-23.779
-38.1782
-52.6796
-67.2848
-81.8715
-96.3549
-110.619
-124.495
-137.782
-150.248
-161.63
-171.664
-180.156
-186.872
-191.633
-194.307
-194.78
-192.91
-188.59
-181.893
-173.095
-162.599
-150.937
-138.683
-126.455
-114.905
-103.97
-89.3781
-65.7995
-33.9468
-6.09235
79.8595
86.7794
93.8256
100.553
106.297
111.05
114.526
116.493
117.061
116.416
114.756
112.319
109.24
105.599
101.458
96.8097
91.6329
85.9087
79.6083
72.7146
65.2345
57.2003
48.6685
39.7797
30.8183
22.1135
13.9326
6.49723
0.00608583
-5.36751
-9.47165
-12.1797
-13.3881
-12.971
-10.7444
-6.3898
0.232432
9.71961
20.8643
67.4496
59.3602
49.7709
39.061
28.0182
15.9617
3.30018
-9.62015
-22.9029
-36.351
-49.8741
-63.4841
-77.0727
-90.5738
-103.894
-116.889
-129.386
-141.182
-152.039
-161.71
-170.001
-176.696
-181.605
-184.584
-185.519
-184.276
-180.741
-174.947
-167.101
-157.533
-146.711
-135.162
-123.428
-111.941
-100.512
-85.538
-62.7064
-32.7115
-6.2027
74.682
81.2499
87.9583
94.3857
99.8932
104.48
107.876
109.854
110.518
110.046
108.626
106.485
103.755
100.513
96.8197
92.6661
88.0296
82.8863
77.2
70.9428
64.1074
56.7093
48.7858
40.4569
31.9874
23.6917
15.8243
8.60106
2.22387
-3.12516
-7.28461
-10.1161
-11.5041
-11.3198
-9.37422
-5.38201
0.769167
9.51345
19.7019
62.9799
55.3131
46.2318
36.1029
25.6875
14.3296
2.42371
-9.69801
-22.1401
-34.7141
-47.3394
-60.032
-72.6989
-85.2863
-97.7201
-109.879
-121.613
-132.744
-143.061
-152.334
-160.372
-166.979
-171.958
-175.164
-176.483
-175.784
-172.952
-167.983
-161.022
-152.334
-142.323
-131.456
-120.197
-108.785
-96.9466
-81.7367
-59.7814
-31.5664
-6.25377
69.845
76.0822
82.4731
88.6137
93.8934
98.3165
101.626
103.601
104.338
104.01
102.795
100.91
98.4847
95.5928
92.2941
88.5808
84.4299
79.8143
74.6928
69.0287
62.8035
56.017
48.6889
40.9167
32.946
25.075
17.5447
10.5625
4.33027
-0.964835
-5.15316
-8.08678
-9.63917
-9.67891
-8.01565
-4.39319
1.28268
9.28368
18.5347
58.8038
51.533
42.9254
33.3393
23.506
12.7967
1.59065
-9.79537
-21.4604
-33.2298
-45.0273
-56.875
-68.6886
-80.427
-92.0319
-103.398
-114.4
-124.881
-134.652
-143.504
-151.249
-157.711
-162.697
-166.057
-167.684
-167.453
-165.24
-161.016
-154.872
-147.013
-137.777
-127.561
-116.734
-105.412
-93.3585
-78.1082
-57.012
-30.4065
-6.12291
65.3238
71.251
77.3402
83.2083
88.2682
92.5294
95.7476
97.7081
98.5002
98.2919
97.253
95.5898
93.4297
90.846
87.8966
84.5754
80.8596
76.7213
72.116
67.0016
61.3492
55.1456
48.3935
41.17
33.7002
26.2648
19.0904
12.3743
6.31504
1.10225
-3.08902
-6.10271
-7.80354
-8.05721
-6.6735
-3.42297
1.76356
9.0319
17.3649
54.9021
48.0021
39.8399
30.7616
21.4708
11.3647
0.808041
-9.89482
-20.8431
-31.8683
-42.9018
-53.9678
-64.9916
-75.9415
-86.771
-97.391
-107.694
-117.544
-126.772
-135.189
-142.611
-148.885
-153.821
-157.273
-159.139
-159.3
-157.63
-154.073
-148.678
-141.595
-133.093
-123.497
-113.099
-101.93
-89.7938
-74.6253
-54.401
-29.1064
-5.75177
61.097
66.7324
72.5362
78.1425
82.9911
87.0935
90.2163
92.1519
92.9838
92.8754
91.9872
90.5175
88.5903
86.2783
83.6378
80.6651
77.339
73.6312
69.4961
64.8879
59.7699
54.1174
47.918
41.2304
34.2579
27.264
20.4598
14.0308
8.16989
3.06639
-1.1022
-4.17351
-6.00529
-6.46099
-5.35443
-2.47863
2.22001
8.76432
16.2052
51.2567
44.7064
36.9622
28.3611
19.5767
10.0346
0.0827621
-9.98683
-20.269
-30.606
-40.9325
-51.2754
-61.5669
-71.7833
-81.8885
-91.8066
-101.446
-110.687
-119.38
-127.356
-134.436
-140.486
-145.325
-148.815
-150.856
-151.34
-150.137
-147.172
-142.456
-136.089
-128.277
-119.271
-109.3
-98.3507
-86.296
-71.3062
-51.8074
-27.5615
-5.1235
57.1446
62.5044
68.0366
73.394
78.038
81.9832
85.0087
86.9117
87.7717
87.7458
86.9874
85.686
83.9635
81.8911
79.5247
76.8624
73.8849
70.5647
66.8569
62.7124
58.0894
52.9541
47.2816
41.1121
34.6293
28.0774
21.6527
15.528
9.88761
4.91748
0.796526
-2.31028
-4.25519
-4.90003
-4.06377
-1.56031
2.64367
8.48186
15.0575
47.8504
41.6299
34.2808
26.128
17.8199
8.80414
-0.582426
-10.0608
-19.7249
-29.4227
-39.0935
-48.7654
-58.378
-67.9131
-77.342
-86.6008
-95.6111
-104.268
-112.439
-119.974
-126.7
-132.5
-137.205
-140.684
-142.845
-143.588
-142.783
-140.338
-136.233
-130.523
-123.356
-114.919
-105.395
-94.7329
-82.8294
-68.0255
-49.1969
-25.7665
-4.31117
53.4486
58.5472
63.8215
68.9391
73.3859
77.1776
80.1039
81.9685
82.8461
82.8881
82.2414
81.0876
79.5458
77.6857
75.5623
73.1764
70.5102
67.5389
64.2175
60.4964
56.3297
51.6765
46.5019
40.8303
34.8247
28.7118
22.6717
16.8638
11.4627
6.64836
2.59799
-0.522321
-2.56155
-3.38129
-2.80819
-0.674023
3.04295
8.19152
13.936
44.6682
38.7603
31.7837
24.0541
16.1924
7.6719
-1.18565
-10.1132
-19.2002
-28.3031
-37.3648
-46.4136
-55.3948
-64.2961
-73.0938
-81.734
-90.1495
-98.2496
-105.915
-113.012
-119.381
-124.912
-129.453
-132.88
-135.111
-136.054
-135.581
-133.587
-130.025
-124.912
-118.346
-110.458
-101.389
-91.0488
-79.359
-64.7619
-46.4904
-23.7859
-3.38575
49.9915
54.8425
59.87
64.7586
69.0148
72.6558
75.4825
77.3042
78.1906
78.2886
77.7384
76.7142
75.3318
73.6598
71.7528
69.6127
67.2255
64.5673
61.5952
58.2591
54.511
50.3049
45.5975
40.3996
34.8562
29.175
23.5202
18.0377
12.8905
8.25118
4.29265
1.18005
-0.9348
-1.91432
-1.59393
0.179189
3.41012
7.89421
12.8422
41.6955
36.0829
29.4602
22.13
14.6899
6.63372
-1.72744
-10.1382
-18.6869
-27.2349
-35.7294
-44.1985
-52.5931
-60.9034
-69.1123
-77.1724
-85.0269
-92.5964
-99.7752
-106.443
-112.454
-117.704
-122.057
-125.4
-127.658
-128.75
-128.548
-126.94
-123.858
-119.287
-113.279
-105.919
-97.3069
-87.308
-75.8413
-61.4534
-43.762
-21.7475
-2.41186
46.7576
51.373
56.166
60.8339
64.9063
68.401
71.1271
72.9016
73.79
73.9339
73.4672
72.5569
71.3158
69.8113
68.0968
66.1769
64.0391
61.6623
59.0043
56.0172
52.6514
48.8579
44.5864
39.8372
34.737
29.4763
24.2034
19.0509
14.169
9.72089
5.87328
2.78853
0.616857
-0.506201
-0.426677
0.994616
3.75379
7.59702
11.7905
38.9187
33.5875
27.2991
20.3476
13.304
5.68696
-2.20757
-10.1354
-18.1792
-26.2088
-34.1741
-42.1034
-49.9508
-57.7109
-65.3692
-72.8858
-80.2118
-87.2777
-93.9897
-100.24
-105.895
-110.857
-115.006
-118.237
-120.486
-121.68
-121.695
-120.414
-117.751
-113.665
-108.173
-101.314
-93.147
-83.4907
-72.2788
-58.1566
-41.0394
-19.7841
-1.39038
43.7323
48.124
52.6923
57.1493
61.0437
64.395
67.0214
68.7459
69.6303
69.8114
69.4171
68.6075
67.4923
66.1369
64.5946
62.8711
60.9568
58.8314
56.4565
53.7844
50.7667
47.3521
43.4856
39.1577
34.4799
29.6255
24.7279
19.9059
15.2967
11.0527
7.33293
4.29398
2.08375
0.833727
0.687108
1.76954
4.06746
7.30029
10.781
36.3252
31.2608
25.2907
18.6981
12.0305
4.82592
-2.62874
-10.1014
-17.6728
-25.2174
-32.6877
-40.113
-47.4505
-54.6962
-61.8405
-68.8482
-75.677
-82.266
-88.532
-94.3779
-99.6837
-104.355
-108.288
-111.388
-113.597
-114.852
-115.036
-114.025
-111.725
-108.074
-103.055
-96.6671
-88.9301
-79.6267
-68.6969
-54.9115
-38.4384
-18.0037
-0.334482
40.9024
45.0807
49.4347
53.6879
57.4112
60.6231
63.15
64.8221
65.6978
65.9089
65.5777
64.8572
63.8541
62.6324
61.2436
59.6962
57.9816
56.0819
53.9605
51.5729
48.8712
45.8028
42.3103
38.3764
34.0982
29.6333
25.1012
20.6068
16.2744
12.2443
8.66633
5.69038
3.45907
2.09943
1.74239
2.50148
4.35875
7.01114
9.82756
33.9036
29.0936
23.4255
17.1737
10.8607
4.04805
-2.99211
-10.0376
-17.1642
-24.2538
-31.2613
-38.2152
-45.076
-51.842
-58.5054
-65.0361
-71.3975
-77.5356
-83.3772
-88.8343
-93.7989
-98.1802
-101.89
-104.842
-106.986
-108.268
-108.577
-107.789
-105.8
-102.532
-97.9426
-91.9949
-84.6731
-75.7319
-65.1433
-51.7911
-35.9856
-16.4603
0.699803
38.2553
42.23
46.3783
50.4371
53.9944
57.0699
59.4992
61.1172
61.9803
62.2152
61.9387
61.2975
60.3945
59.2926
58.0416
56.6517
55.1159
53.4178
51.524
49.3923
46.9762
44.2233
41.0749
37.5076
33.6053
29.5111
25.3316
21.1586
17.1033
13.2938
9.86914
6.97072
4.73488
3.28246
2.73282
3.18656
4.62182
6.72915
8.92891
31.6428
27.0745
21.6945
15.7663
9.7905
3.34692
-3.30136
-9.94304
-16.6521
-23.3148
-29.8882
-36.4008
-42.8159
-49.1328
-55.3464
-61.43
-67.3523
-73.0651
-78.5032
-83.5878
-88.2213
-92.3172
-95.8004
-98.5928
-100.652
-101.931
-102.328
-101.718
-99.993
-97.0627
-92.8623
-87.3247
-80.4086
-71.8515
-61.6542
-48.8217
-33.7366
-15.1549
1.61631
35.7795
39.5598
43.5117
47.3824
50.7799
53.7234
56.0555
57.6188
58.4661
58.7195
58.4905
57.9198
57.1067
56.112
54.9846
53.7356
52.3598
50.8422
49.1523
47.2506
45.0918
42.6259
39.7928
36.5646
33.014
29.2703
25.4282
21.5677
17.7871
14.2015
10.9389
8.13103
5.90633
4.37848
3.65486
3.82402
4.86331
6.46151
8.09731
29.5327
25.1952
20.0888
14.4687
8.81155
2.71947
-3.55865
-9.82065
-16.1358
-22.3967
-28.563
-34.6618
-40.6595
-46.5559
-52.3484
-58.0132
-63.5227
-68.8345
-73.8904
-78.6194
-82.9332
-86.7502
-90.0055
-92.6302
-94.5887
-95.8419
-96.2942
-95.8243
-94.3203
-91.6844
-87.8344
-82.6806
-76.1618
-68.008
-58.2498
-46.009
-31.6435
-14.055
2.3229
33.4639
37.0589
40.8217
44.5125
47.7553
50.57
52.8073
54.3153
55.1439
55.4113
55.2238
54.7159
53.9833
53.0848
52.0683
50.9457
49.7129
48.357
46.8499
45.1538
43.2275
41.0212
38.4762
35.5605
32.3367
28.922
25.4004
21.841
18.3294
14.9683
11.8739
9.16723
6.96765
5.38089
4.50286
4.40957
5.07826
6.20691
7.32865
27.5634
23.4454
18.6006
13.2733
7.92005
2.15953
-3.76775
-9.66965
-15.6142
-21.497
-27.2809
-32.9916
-38.5979
-44.1009
-49.4986
-54.7706
-59.8923
-64.8267
-69.5211
-73.9114
-77.9183
-81.4642
-84.4938
-86.9463
-88.7924
-90.0003
-90.4814
-90.118
-88.7981
-86.4182
-82.8845
-78.0903
-71.9626
-64.232
-54.9381
-43.3313
-29.6899
-13.103
2.79502
31.2986
34.716
38.2984
41.8151
44.9092
47.5995
49.7434
51.1954
52.0036
52.2811
52.1295
51.6774
51.0168
50.2051
49.2882
48.2789
47.1743
45.963
44.619
43.1079
41.39
39.4185
37.1355
34.5062
31.5848
28.4773
25.2581
21.9862
18.7358
15.5973
12.6747
10.0779
7.91626
6.28707
5.27475
4.94356
5.2724
5.97149
6.63259
25.7258
21.8179
17.2217
12.1737
7.10805
1.66383
-3.93122
-9.49418
-15.0876
-20.6143
-26.0384
-31.3845
-36.6237
-41.7578
-46.786
-51.6896
-56.4475
-61.0267
-65.3795
-69.4485
-73.1614
-76.4455
-79.2532
-81.5315
-83.2576
-84.4056
-84.8934
-84.6083
-83.4396
-81.2817
-78.0329
-73.5768
-67.8311
-60.5354
-51.7196
-40.7644
-27.8156
-12.25
3.04534
29.2737
32.5214
35.9302
39.2807
42.2308
44.8002
46.8531
48.2495
49.0354
49.3195
49.1989
48.7964
48.2005
47.4667
46.6395
45.7319
44.7421
43.6601
42.4622
41.1163
39.5855
37.8256
35.7795
33.4116
30.769
27.9469
25.0111
22.0118
19.0127
16.0923
13.3424
10.8618
8.74915
7.09263
5.96612
5.422
5.44114
5.75247
6.00265
24.0113
20.3033
15.945
11.1628
6.37187
1.22642
-4.05352
-9.29426
-14.5572
-19.7481
-24.8334
-29.837
-34.7318
-39.5198
-44.2011
-48.7594
-53.1757
-57.4207
-61.4516
-65.2161
-68.6489
-71.6816
-74.2737
-76.3786
-77.9793
-79.0562
-79.5334
-79.3033
-78.258
-76.2924
-73.3017
-69.1634
-63.7895
-56.936
-48.6029
-38.2996
-26.0404
-11.4648
3.10722
27.3801
30.4654
33.7084
36.8981
39.71
42.1628
44.1265
45.4679
46.23
46.5178
46.4241
46.0655
45.5278
44.8638
44.1177
43.301
42.4144
41.4476
40.3804
39.1816
37.8189
36.2482
34.4163
32.2864
29.8993
27.3411
24.6694
21.9269
19.1674
16.4585
13.8805
11.5205
9.4665
7.79726
6.57658
5.84611
5.58922
5.55469
5.44595
22.4118
18.8952
14.7634
10.2348
5.70409
0.844325
-4.13697
-9.07388
-14.0237
-18.8976
-23.6639
-28.3455
-32.9166
-37.38
-41.7362
-45.9705
-50.0663
-53.9973
-57.725
-61.2018
-64.3687
-67.1611
-69.5448
-71.479
-72.9523
-73.9504
-74.4035
-74.2093
-73.2641
-71.4653
-68.7083
-64.8693
-59.8546
-53.4424
-45.5974
-35.9393
-24.3758
-10.7684
2.96548
25.6093
28.5393
31.6228
34.6591
37.3375
39.6772
41.5546
42.8413
43.5789
43.868
43.7973
43.4779
42.9918
42.3914
41.7168
40.9831
40.1874
39.3247
38.3726
37.3065
36.0924
34.6919
33.0528
31.1389
28.9852
26.6697
24.2429
21.7404
19.2077
16.7021
14.2927
12.0557
10.0681
8.39933
7.10367
6.21292
5.71263
5.37444
4.95374
20.9194
17.5852
13.6703
9.38342
5.1016
0.51151
-4.18598
-8.83396
-13.4883
-18.0631
-22.5288
-26.9073
-31.1744
-35.333
-39.3843
-43.315
-47.1103
-50.7465
-54.1889
-57.3946
-60.3096
-62.8736
-65.0572
-66.8254
-68.1715
-69.0858
-69.5047
-69.3314
-68.4675
-66.8145
-64.2701
-60.7129
-56.045
-50.0701
-42.7185
-33.7055
-22.8761
-10.214
2.57782
23.9535
26.7347
29.666
32.5541
35.1045
37.3353
39.1284
40.3614
41.0737
41.3619
41.3109
41.0263
40.587
40.0426
39.4336
38.7724
38.0593
37.2876
36.4397
35.4903
34.4097
33.161
31.6948
29.9762
28.035
25.9417
23.7408
21.4617
19.142
16.83
14.5847
12.4713
10.5567
8.90072
7.54898
6.52471
5.81537
5.21514
4.53091
19.5275
16.368
12.6595
8.60351
4.5573
0.225375
-4.20314
-8.57853
-12.9523
-17.2447
-21.4271
-25.5205
-29.502
-33.3746
-37.14
-40.786
-44.2996
-47.6594
-50.834
-53.7844
-56.4618
-58.8098
-60.8027
-62.4107
-63.6313
-64.46
-64.8379
-64.6743
-63.8763
-62.3513
-60.0012
-56.7098
-52.3765
-46.8306
-39.9785
-31.6106
-21.5517
-9.86042
1.91183
22.4048
25.0444
27.8289
30.5759
33.0027
35.1281
36.8397
38.0201
38.7067
38.9924
38.9579
38.7041
38.3064
37.8126
37.2616
36.6656
36.0253
35.3351
34.579
33.7338
32.7719
31.6584
30.3475
28.8047
27.0561
25.1656
23.1722
21.0997
18.9789
16.85
14.7625
12.7719
10.935
9.30265
7.91244
6.78002
5.89433
5.07243
4.16705
18.2291
15.236
11.7254
7.88934
4.06844
-0.0195905
-4.19239
-8.3082
-12.4176
-16.4433
-20.3587
-24.1837
-27.8968
-31.5013
-34.9985
-38.3779
-41.6275
-44.7283
-47.6519
-50.3627
-52.8164
-54.9611
-56.7733
-58.228
-59.3271
-60.0698
-60.4027
-60.2407
-59.4971
-58.0858
-55.9143
-52.8744
-48.8648
-43.7383
-37.3898
-29.6679
-20.414
-9.72142
0.996953
20.957
23.4608
26.1056
28.716
31.0245
33.0484
34.6806
35.8094
36.4703
36.752
36.7315
36.5049
36.1443
35.6957
35.1963
34.6581
34.0824
33.4645
32.7897
32.0368
31.1801
30.1874
29.0152
27.63
26.0556
24.3495
22.5457
20.6633
18.7271
16.7701
14.8335
12.9635
11.208
9.60917
8.1974
6.982
5.95283
4.9484
3.86512
17.0186
14.185
10.8625
7.23631
3.62876
-0.225847
-4.15626
-8.02721
-11.8855
-15.6594
-19.323
-22.8955
-26.3566
-29.7094
-32.9556
-36.0853
-39.0881
-41.9466
-44.6353
-47.1217
-49.3655
-51.3195
-52.9616
-54.2712
-55.2537
-55.9121
-56.1982
-56.0327
-55.335
-54.0261
-52.0203
-49.2182
-45.5215
-40.8037
-34.9582
-27.8763
-19.4353
-9.7667
-0.0905282
19.6034
21.978
24.4882
26.9685
29.1627
31.0885
32.6441
33.7223
34.3574
34.6338
34.6251
34.4226
34.095
33.6867
33.2331
32.7461
32.2277
31.6735
31.0706
30.3993
29.6359
28.7503
27.7014
26.4578
25.0403
23.501
21.8698
20.1614
18.3956
16.5991
14.8055
13.0531
11.381
9.8241
8.40604
7.1307
5.98847
4.83812
3.61344
15.8902
13.2083
10.066
6.63953
3.23595
-0.398524
-4.0984
-7.73635
-11.358
-14.894
-18.3205
-21.6555
-24.8798
-27.9965
-31.0076
-33.9038
-36.6759
-39.3082
-41.7775
-44.0544
-46.1022
-47.8779
-49.3611
-50.5342
-51.4061
-51.9834
-52.2229
-52.0508
-51.3932
-50.1779
-48.3272
-45.751
-42.3567
-38.0357
-32.688
-26.2368
-18.5991
-9.93734
-1.26737
18.3387
20.5894
22.9715
25.3261
27.4107
29.242
30.7229
31.7519
32.3612
32.6314
32.6325
32.4511
32.153
31.7805
31.3677
30.9261
30.4581
29.9602
29.4205
28.8211
28.14
27.3491
26.4101
25.2932
24.0164
22.6276
21.1523
19.6022
17.993
16.3456
14.687
13.0482
11.461
9.95318
8.54297
7.22977
6.00381
4.74232
3.41337
14.8389
12.3023
9.33101
6.09501
2.88427
-0.539539
-4.02108
-7.43948
-10.8366
-14.1481
-17.3511
-20.4626
-23.4647
-26.3602
-29.1513
-31.8295
-34.3863
-36.8077
-39.0728
-41.1547
-43.02
-44.6299
-45.9654
-47.0111
-47.7795
-48.28
-48.4746
-48.2952
-47.6737
-46.5455
-44.8409
-42.4794
-39.3765
-35.4394
-30.5788
-24.7417
-17.8775
-10.1811
-2.46826
17.1569
19.2896
21.5484
23.7834
25.7623
27.5021
28.9111
29.8919
30.4754
30.7385
30.7476
30.5848
30.313
29.9725
29.5959
29.1944
28.7709
28.3225
27.8383
27.3019
26.6932
25.9861
25.1445
24.1403
22.9898
21.7356
20.4005
18.9941
17.5282
16.0187
14.4867
12.957
11.4549
10.0022
8.61215
7.28054
5.99729
4.65619
3.25252
13.8596
11.4609
8.65338
5.59829
2.57194
-0.653438
-3.92773
-7.13725
-10.3228
-13.4226
-16.415
-19.3166
-22.1101
-24.7986
-27.384
-29.8586
-32.2151
-34.4404
-36.5156
-38.4166
-40.1129
-41.5696
-42.7686
-43.6969
-44.3687
-44.7975
-44.9506
-44.7645
-44.1771
-43.1308
-41.5646
-39.4077
-36.5847
-33.0171
-28.6286
-23.3853
-17.2594
-10.4631
-3.65902
16.0533
18.073
20.2144
22.3339
24.2116
25.8635
27.2026
28.1364
28.6942
28.9493
28.9648
28.8183
28.5699
28.258
27.9135
27.5477
27.1634
26.7584
26.3228
25.8416
25.2965
24.663
23.9075
23.0037
21.9654
20.8312
19.622
18.3454
17.01
15.6273
14.2136
12.7882
11.3709
9.97813
8.61901
7.28689
5.9709
4.57913
3.13131
12.9476
10.6809
8.02854
5.14584
2.29353
-0.741906
-3.82015
-6.83299
-9.81818
-12.7183
-15.5127
-18.2169
-20.815
-23.3097
-25.703
-27.9881
-30.1581
-32.2015
-34.101
-35.8348
-37.3752
-38.6911
-39.765
-40.5851
-41.1686
-41.5325
-41.6478
-41.4569
-40.9025
-39.9342
-38.4994
-36.5375
-33.9824
-30.7686
-26.8329
-22.1565
-16.7275
-10.7656
-4.81309
15.0226
16.9346
18.9632
20.9727
22.7529
24.3202
25.5919
26.48
27.0122
27.2585
27.2787
27.1466
26.9189
26.6325
26.3168
25.9825
25.6328
25.2659
24.8729
24.44
23.9503
23.3815
22.702
21.8869
20.9479
19.9207
18.8242
17.6643
16.447
15.1806
13.877
12.5509
11.2171
9.888
8.56881
7.25127
5.92384
4.50682
3.03751
12.0985
9.95685
7.45272
4.73368
2.04763
-0.809119
-3.70129
-6.52725
-9.32409
-12.036
-14.6442
-17.1633
-19.5783
-21.8919
-24.1063
-26.2149
-28.2119
-30.0868
-31.824
-33.4039
-34.8014
-35.9885
-36.9482
-37.6702
-38.1746
-38.4796
-38.5624
-38.369
-37.8472
-36.9535
-35.6441
-33.8677
-31.5679
-28.6906
-25.1853
-21.0459
-16.272
-11.0766
-5.9181