/*--------------------------------*- C++ -*----------------------------------*\
| =========                 |                                                 |
| \\      /  F ield         | OpenFOAM: The Open Source CFD Toolbox           |
|  \\    /   O peration     | Version:  2312                                  |
|   \\  /    A nd           | Website:  www.openfoam.com                      |
|    \\/     M anipulation  |                                                 |
\*---------------------------------------------------------------------------*/
FoamFile
{
    version     2.0;
    format      ascii;
    arch        "LSB;label=32;scalar=64";
    class       surfaceScalarField;
    location    "50";
    object      phi;
}
// * * * * * * * * * * * * * * * * * * * * * * * * * * * * * * * * * * * * * //

dimensions      [0 3 -1 0 0 0 0];

oriented        oriented;

internalField   nonuniform List<scalar> 
21254
(
-0.150177
0.170839
-0.0206606
0.193542
-0.0227029
0.214549
-0.0210071
0.234051
-0.0195022
0.252846
-0.0187952
0.269055
-0.0162079
0.282847
-0.0137914
0.294748
-0.0119
0.303923
-0.00917403
0.311129
-0.00720497
0.316511
-0.00538173
0.319909
-0.00339786
0.321729
-0.00182033
0.321664
6.57235e-05
0.318861
0.00280321
0.313077
0.00578397
0.303575
0.00950337
0.289666
0.0139094
0.270045
0.0196222
0.243178
0.0268677
0.206753
0.0364269
0.160698
0.0460571
0.110547
0.050154
0.0681433
0.0424096
0.0420624
0.0260967
0.0313409
0.0107447
0.0291459
0.00220541
0.028827
0.000290454
0.0277739
0.000985366
0.0251964
0.00270072
0.0196499
0.00556664
0.0138521
0.00582753
0.0123752
0.00133286
0.00807786
0.00540675
-0.017699
0.0250614
-0.0383443
0.0205706
-0.045632
0.00753484
-0.0381763
-0.00705707
0.0256936
-0.0580631
-0.127272
-0.0229054
-0.10314
-0.0241315
-0.074847
-0.0282925
-0.0447949
-0.0300496
-0.0139185
-0.0308721
0.0170783
-0.0309903
0.0476459
-0.0305641
0.0757556
-0.028108
0.100761
-0.0250038
0.122016
-0.0212539
0.139442
-0.0174256
0.153649
-0.0142057
0.165195
-0.0115441
0.174524
-0.00932708
0.182403
-0.00787773
0.189069
-0.00666389
0.194991
-0.00591983
0.200348
-0.00535452
0.205424
-0.00507321
0.210291
-0.00486405
0.215094
-0.00479888
0.219774
-0.00467613
0.224221
-0.00444448
0.227691
-0.00346973
0.230017
-0.00232508
0.231587
-0.00156789
0.232505
-0.000915017
0.233055
-0.000543594
0.233312
-0.000247794
0.233179
0.00013312
0.232433
0.000752337
0.230988
0.00144948
0.228831
0.00216554
0.225987
0.00285432
0.222351
0.00364063
0.21756
0.0047726
0.210436
0.00714953
0.196639
0.0135829
0.17999
0.0169947
-0.137445
0.158361
-0.0415756
0.179957
-0.044299
0.202836
-0.0438859
0.224453
-0.0411187
0.245743
-0.0400851
0.265871
-0.036335
0.28433
-0.0322488
0.301329
-0.0288979
0.316514
-0.024358
0.329902
-0.0205923
0.341526
-0.017006
0.351432
-0.0133035
0.3597
-0.0100881
0.366801
-0.0070345
0.373335
-0.00373104
0.379124
-4.11608e-06
0.384
0.00462879
0.387722
0.0101883
0.389233
0.0181131
0.387439
0.0286631
0.379282
0.0445856
0.360469
0.0648718
0.325926
0.0846991
0.276571
0.091767
0.221417
0.0812548
0.170341
0.0618293
0.130519
0.0420367
0.104104
0.0267078
0.0864095
0.0186657
0.0717084
0.0174396
0.0586247
0.0186581
0.0502236
0.0142453
0.0415446
0.00996614
0.0197349
0.0275045
-0.00601543
0.050667
-0.0156569
0.0302431
-0.011998
0.00403908
-0.00956402
-0.0090921
0.0239156
-0.0883244
-0.116263
-0.0440867
-0.0935303
-0.0468639
-0.0669229
-0.0548986
-0.0388652
-0.0581049
-0.00911673
-0.0606161
0.0217551
-0.0618586
0.0513274
-0.0601337
0.0784085
-0.0551876
0.102719
-0.0493129
0.124163
-0.0426968
0.142582
-0.0358436
0.158332
-0.0299544
0.171801
-0.0250121
0.183217
-0.0207413
0.193098
-0.0177561
0.201735
-0.0152991
0.209418
-0.0136005
0.21646
-0.0123934
0.223108
-0.0117179
0.229444
-0.0111966
0.235622
-0.0109734
0.241696
-0.0107458
0.247572
-0.0103175
0.252732
-0.00862857
0.256864
-0.00645615
0.26014
-0.00484211
0.262396
-0.00316842
0.263541
-0.00168136
0.263593
-0.000287342
0.262729
0.00100088
0.261212
0.00227933
0.259224
0.00344637
0.256805
0.00459795
0.253946
0.00572549
0.250563
0.00703799
0.246328
0.00899857
0.241097
0.0123951
0.231202
0.0232459
0.215682
0.0330124
-0.133748
0.155316
-0.0631429
0.177286
-0.0662677
0.201144
-0.0677443
0.223193
-0.0631665
0.244493
-0.0613843
0.265091
-0.0569309
0.283745
-0.0509012
0.300789
-0.0459404
0.315808
-0.0393762
0.328939
-0.0337237
0.340185
-0.0282513
0.349643
-0.0227622
0.357135
-0.0175797
0.362914
-0.0128132
0.366664
-0.00748081
0.368959
-0.00229918
0.3699
0.00368862
0.370296
0.00979283
0.370651
0.0177583
0.372109
0.0272068
0.375929
0.0407661
0.381738
0.0590641
0.384649
0.0817901
0.376388
0.10003
0.352227
0.105421
0.312458
0.101602
0.261412
0.0930833
0.208647
0.0794617
0.164017
0.0632718
0.13
0.0515003
0.104331
0.0443378
0.0857548
0.0328307
0.0671287
0.0285641
0.0398926
0.055039
0.0158987
0.0744329
0.00892954
0.0371574
0.0150356
-0.00200012
0.0186742
-0.0126997
0.0355785
-0.10329
-0.112172
-0.0656622
-0.0889189
-0.0701161
-0.0613019
-0.0825131
-0.0328299
-0.086574
-0.00322698
-0.0902151
0.0272492
-0.0923307
0.0567163
-0.089599
0.0838295
-0.0822994
0.108309
-0.0737913
0.130052
-0.0644386
0.148881
-0.0546714
0.165024
-0.0460964
0.178876
-0.0388626
0.190755
-0.0326182
0.201004
-0.0280036
0.210011
-0.0243033
0.218044
-0.0216321
0.225384
-0.0197308
0.232231
-0.0185623
0.238742
-0.0177048
0.2451
-0.0173275
0.251291
-0.0169341
0.257182
-0.0162055
0.262435
-0.0138806
0.266735
-0.0107545
0.270215
-0.00832027
0.272944
-0.00589532
0.274956
-0.00368829
0.276328
-0.00165313
0.277065
0.000262619
0.277225
0.00212495
0.276745
0.00392834
0.275636
0.00571327
0.27381
0.00756168
0.27118
0.00966567
0.267343
0.0128116
0.261914
0.0178578
0.251715
0.0333123
0.235428
0.0494491
-0.129729
0.152
-0.0854122
0.174543
-0.0888109
0.199452
-0.0926518
0.222291
-0.0860042
0.244635
-0.0837276
0.26626
-0.078553
0.286242
-0.0708815
0.304518
-0.0642161
0.321206
-0.0560628
0.336069
-0.0485868
0.349215
-0.0413971
0.360617
-0.0341642
0.370275
-0.0272378
0.378178
-0.0207159
0.384579
-0.0138817
0.389274
-0.00699243
0.392228
0.000735006
0.393105
0.00891699
0.392091
0.0187747
0.389332
0.0299667
0.385978
0.0441223
0.384523
0.0605212
0.386999
0.0793171
0.391693
0.0953383
0.39295
0.104167
0.384628
0.10993
0.361058
0.11666
0.319447
0.121077
0.264934
0.117781
0.210338
0.106115
0.1655
0.0891821
0.130819
0.0675216
0.0990775
0.0602869
0.0659699
0.0882617
0.0420387
0.0983297
0.0357997
0.0434307
0.0425182
-0.00861631
0.0476962
-0.0175875
0.0595838
-0.113165
-0.107689
-0.0877014
-0.0842369
-0.0935656
-0.0558643
-0.110884
-0.0269189
-0.115515
0.00302539
-0.120155
0.0338128
-0.123116
0.063601
-0.119385
0.0908005
-0.109498
0.115245
-0.098235
0.137031
-0.086223
0.155961
-0.0736
0.172348
-0.0624826
0.18661
-0.053123
0.19902
-0.045026
0.209942
-0.0389234
0.219597
-0.0339563
0.228335
-0.0303674
0.236326
-0.0277199
0.243817
-0.0260496
0.250937
-0.0248208
0.257792
-0.024179
0.264439
-0.0235771
0.270796
-0.0225587
0.276502
-0.019585
0.281291
-0.0155428
0.285237
-0.0122652
0.288396
-0.00905121
0.290815
-0.00610121
0.292531
-0.0033593
0.293608
-0.000809451
0.294085
0.0016588
0.293968
0.00405475
0.293257
0.00643855
0.291926
0.00890775
0.289836
0.0117691
0.286562
0.016076
0.281575
0.0228655
0.271535
0.0431536
0.253346
0.0681043
-0.127743
0.150891
-0.108559
0.17434
-0.112258
0.200592
-0.118902
0.224178
-0.10959
0.247423
-0.106969
0.269988
-0.101116
0.290702
-0.0915942
0.309751
-0.0832642
0.327326
-0.0736374
0.342852
-0.0641128
0.356657
-0.0552014
0.368656
-0.0461636
0.379049
-0.0376307
0.387526
-0.0291928
0.3942
-0.0205554
0.399061
-0.0118535
0.402178
-0.00238172
0.403665
0.00743065
0.403385
0.0190556
0.401684
0.031668
0.398656
0.0471518
0.395028
0.06415
0.392267
0.0820793
0.391753
0.0958543
0.393573
0.102351
0.396107
0.1074
0.39537
0.117397
0.38394
0.132496
0.35285
0.14885
0.301799
0.157203
0.243542
0.147448
0.189765
0.121305
0.14155
0.108485
0.100092
0.129964
0.0738412
0.124405
0.0664747
0.0507424
0.0722775
-0.0143693
0.0777293
-0.023063
0.0877969
-0.122041
-0.104716
-0.110727
-0.0805676
-0.117712
-0.0509955
-0.140452
-0.0211721
-0.145335
0.00952543
-0.15085
0.0410423
-0.15463
0.0714896
-0.149831
0.0990701
-0.137077
0.123741
-0.122905
0.145732
-0.108213
0.164799
-0.0926657
0.181375
-0.0790567
0.195924
-0.0676704
0.20867
-0.0577707
0.219974
-0.0502257
0.230121
-0.0441003
0.2393
-0.0395447
0.247717
-0.0361341
0.255588
-0.0339189
0.263061
-0.0322901
0.270221
-0.0313363
0.277108
-0.0304604
0.283669
-0.0291171
0.289599
-0.025513
0.29462
-0.0205622
0.298777
-0.0164205
0.302114
-0.0123863
0.30468
-0.00866287
0.306494
-0.00517136
0.307588
-0.00190443
0.308035
0.00121503
0.307893
0.00419778
0.307175
0.00715957
0.305856
0.0102361
0.303902
0.0137158
0.300919
0.0190269
0.296497
0.0273323
0.287704
0.0518732
0.269528
0.086325
-0.126386
0.150529
-0.1327
0.175151
-0.136879
0.202695
-0.146444
0.227325
-0.134217
0.251454
-0.131096
0.275141
-0.124801
0.296623
-0.113074
0.316653
-0.103294
0.334968
-0.0919517
0.351411
-0.080556
0.366209
-0.0699999
0.379188
-0.0591424
0.390507
-0.04895
0.400134
-0.0388188
0.407925
-0.0283455
0.414131
-0.018059
0.418453
-0.00670244
0.420944
0.00494137
0.421715
0.018286
0.4207
0.0326847
0.418158
0.0496959
0.414564
0.0677462
0.4102
0.0864467
0.405425
0.100632
0.400949
0.10683
0.398106
0.110249
0.398013
0.117497
0.399328
0.131186
0.394729
0.153448
0.371614
0.180332
0.324264
0.194803
0.261282
0.184295
0.196735
0.173018
0.144082
0.182704
0.112602
0.155872
0.102002
0.0613806
0.105263
-0.0175363
0.109398
-0.0269145
0.116918
-0.128027
-0.102392
-0.13472
-0.0773898
-0.142711
-0.0464731
-0.171366
-0.0154815
-0.176323
0.0162855
-0.182613
0.0488524
-0.187195
0.0802145
-0.181191
0.108399
-0.16526
0.133448
-0.147953
0.155681
-0.130446
0.174913
-0.111896
0.191588
-0.09573
0.206285
-0.0823657
0.219282
-0.0707659
0.230892
-0.0618335
0.24139
-0.0545961
0.250956
-0.049108
0.259823
-0.0449988
0.268126
-0.0422185
0.276014
-0.0401746
0.283587
-0.0389051
0.290861
-0.03773
0.29777
-0.0360225
0.304116
-0.0318571
0.309547
-0.0259914
0.314062
-0.0209346
0.317766
-0.0160877
0.320647
-0.0115403
0.322752
-0.00726838
0.32411
-0.00325782
0.324777
0.000557338
0.324775
0.00420918
0.324112
0.00783625
0.322811
0.0115532
0.320713
0.0158257
0.317527
0.0222042
0.31271
0.0321755
0.303894
0.0605552
0.285495
0.105117
-0.125815
0.151227
-0.158111
0.17691
-0.16256
0.205951
-0.175484
0.23176
-0.160024
0.257026
-0.156359
0.281702
-0.149475
0.304182
-0.135553
0.324936
-0.124046
0.344097
-0.111113
0.361283
-0.0977418
0.376727
-0.0854446
0.390526
-0.0729419
0.402559
-0.0609828
0.412869
-0.0491288
0.421478
-0.0369544
0.428229
-0.0248087
0.433239
-0.0117121
0.436418
0.00176228
0.437846
0.0168585
0.437592
0.0329395
0.435925
0.051364
0.433198
0.0704741
0.429742
0.0899037
0.425105
0.105271
0.418981
0.112957
0.411841
0.117393
0.405456
0.123881
0.402289
0.134341
0.403247
0.152465
0.402043
0.181572
0.382631
0.214224
0.332833
0.234097
0.262723
0.243112
0.199207
0.246464
0.159728
0.195178
0.143474
0.0775796
0.142286
-0.0163021
0.143442
-0.0281031
0.146979
-0.130835
-0.100645
-0.159889
-0.0745592
-0.168796
-0.0421649
-0.203757
-0.00983534
-0.20865
0.0232113
-0.215658
0.057102
-0.221083
0.0895844
-0.213673
0.1186
-0.194275
0.144209
-0.173561
0.166824
-0.153059
0.186278
-0.131349
0.20309
-0.11254
0.217922
-0.0971962
0.231084
-0.083926
0.242906
-0.0736539
0.253668
-0.0653557
0.263584
-0.0590224
0.272805
-0.0542169
0.281486
-0.050897
0.289736
-0.048422
0.297644
-0.04681
0.305223
-0.045306
0.312448
-0.043245
0.319056
-0.0384627
0.324822
-0.0317549
0.329667
-0.0257775
0.333625
-0.0200432
0.336752
-0.0146652
0.339042
-0.00955815
0.340559
-0.00477787
0.341317
-0.000198994
0.341387
0.00413928
0.340778
0.0084464
0.339445
0.0128942
0.337334
0.0179235
0.334052
0.0254499
0.329056
0.0372248
0.320194
0.0693935
0.301901
0.123356
-0.125727
0.152447
-0.184829
0.179491
-0.189602
0.210146
-0.206137
0.237114
-0.186989
0.263578
-0.182821
0.289396
-0.17529
0.312784
-0.158939
0.334558
-0.14582
0.354408
-0.130963
0.372342
-0.115676
0.388615
-0.101719
0.40309
-0.0874164
0.415817
-0.0737102
0.426896
-0.0602065
0.436251
-0.0463094
0.443837
-0.0323934
0.449673
-0.0175465
0.453709
-0.00227187
0.455905
0.0146635
0.45635
0.0324974
0.455304
0.0524125
0.45304
0.0727405
0.449932
0.0930139
0.445907
0.109299
0.440344
0.118524
0.432866
0.124875
0.42396
0.132795
0.415166
0.14314
0.409468
0.158165
0.409709
0.181345
0.409251
0.214687
0.386604
0.256749
0.330373
0.299331
0.264174
0.312745
0.216265
0.243077
0.191974
0.10191
0.184103
-0.00833449
0.180457
-0.0241657
0.178384
-0.127519
-0.0993246
-0.186291
-0.0720629
-0.196054
-0.0379708
-0.237848
-0.00410788
-0.242508
0.0304207
-0.250183
0.0657835
-0.256445
0.0995979
-0.247486
0.129603
-0.224279
0.155928
-0.199885
0.179056
-0.176186
0.198798
-0.15109
0.215772
-0.129512
0.230723
-0.112146
0.244002
-0.0972028
0.255954
-0.0856036
0.266952
-0.0763514
0.277107
-0.0691753
0.286628
-0.0637357
0.295627
-0.0598924
0.30422
-0.0570116
0.312449
-0.0550362
0.320377
-0.0532293
0.327931
-0.0507954
0.334906
-0.0454345
0.341035
-0.037881
0.346239
-0.0309798
0.350543
-0.0243456
0.353982
-0.0181015
0.356545
-0.0121149
0.358274
-0.00650324
0.359232
-0.00115044
0.359428
0.00395117
0.358894
0.00899329
0.357591
0.0142124
0.355401
0.0201232
0.351985
0.0288594
0.346764
0.0424779
0.337667
0.0784167
0.319492
0.141822
-0.126182
0.154271
-0.212916
0.182729
-0.218058
0.215048
-0.238453
0.243349
-0.215289
0.271186
-0.210654
0.29827
-0.202373
0.322764
-0.183432
0.34535
-0.168405
0.366151
-0.151765
0.384789
-0.134314
0.401645
-0.118575
0.416779
-0.10255
0.430199
-0.0871297
0.441926
-0.0719333
0.451947
-0.0563304
0.460275
-0.04072
0.466794
-0.0240655
0.471472
-0.00694934
0.474338
0.0117986
0.475435
0.0314004
0.474996
0.0528528
0.473269
0.0744681
0.47054
0.0957436
0.46688
0.11296
0.461914
0.123492
0.455222
0.131569
0.446704
0.141312
0.436691
0.153139
0.426292
0.16854
0.419068
0.188604
0.418965
0.214797
0.416093
0.259626
0.386862
0.32854
0.332764
0.367111
0.2813
0.294359
0.248056
0.135082
0.231356
0.00842225
0.221047
-0.0138812
0.211448
-0.117461
-0.0983357
-0.214135
-0.0697319
-0.224657
-0.0338477
-0.273726
0.0016333
-0.277987
0.0378339
-0.286381
0.0748507
-0.293459
0.110194
-0.282828
0.141374
-0.255458
0.168549
-0.227059
0.192299
-0.199936
0.212435
-0.171224
0.229632
-0.146707
0.244718
-0.127231
0.258098
-0.11058
0.270172
-0.0976765
0.28129
-0.0874667
0.29167
-0.0795536
0.301422
-0.0734855
0.31069
-0.0691574
0.319582
-0.0659013
0.328154
-0.0636052
0.33637
-0.0614432
0.344235
-0.0586576
0.351551
-0.0527463
0.358053
-0.0443804
0.363586
-0.0365101
0.368219
-0.0289765
0.371926
-0.0218064
0.374756
-0.014947
0.376704
-0.00845344
0.377811
-0.00226012
0.37813
0.00363254
0.377647
0.00947534
0.376363
0.0155035
0.374155
0.022313
0.370653
0.0323222
0.365245
0.0479455
0.356063
0.0875949
0.338211
0.15958
-0.126926
0.156585
-0.242572
0.186563
-0.248033
0.220719
-0.272607
0.250445
-0.245012
0.279548
-0.239756
0.308019
-0.23084
0.333605
-0.209017
0.357223
-0.192022
0.378903
-0.173445
0.398298
-0.15371
0.415875
-0.136152
0.431727
-0.118403
0.445722
-0.101124
0.458033
-0.0842438
0.468764
-0.0670605
0.477681
-0.0496362
0.484864
-0.0312467
0.490206
-0.0122895
0.493795
0.00821117
0.495613
0.0295842
0.495712
0.0527565
0.494494
0.075689
0.492114
0.0981259
0.488695
0.116382
0.483982
0.128208
0.477692
0.137863
0.469879
0.149132
0.460608
0.162415
0.449808
0.179343
0.438275
0.200148
0.430564
0.222512
0.430876
0.259314
0.424799
0.334605
0.39471
0.397293
0.349903
0.339155
0.310406
0.17462
0.283883
0.0350557
0.265324
0.0049959
0.246158
-0.0971839
-0.0976794
-0.243381
-0.0676134
-0.254719
-0.0297722
-0.311567
0.00755912
-0.315314
0.0455098
-0.324329
0.0843949
-0.332343
0.121367
-0.319798
0.153863
-0.287953
0.182051
-0.255246
0.206558
-0.224442
0.22717
-0.191835
0.244647
-0.164182
0.25991
-0.142492
0.273379
-0.124048
0.285542
-0.109837
0.296784
-0.0987072
0.307284
-0.0900516
0.317224
-0.0834225
0.326743
-0.0786742
0.335896
-0.0750508
0.344709
-0.0724149
0.35325
-0.0699805
0.36144
-0.0668438
0.369091
-0.0603933
0.375941
-0.0512271
0.381855
-0.0424221
0.386809
-0.0339271
0.390848
-0.0258428
0.393946
-0.0180403
0.396132
-0.0106354
0.397451
-0.00357541
0.397895
0.00319413
0.397516
0.00986358
0.396272
0.0167626
0.394024
0.0245688
0.390411
0.035931
0.384853
0.0535413
0.375579
0.0968352
0.358086
0.177277
-0.128084
0.159319
-0.273805
0.19087
-0.279582
0.226925
-0.308659
0.25826
-0.276345
0.288915
-0.270406
0.3188
-0.260724
0.345496
-0.235712
0.370244
-0.216769
0.392866
-0.196067
0.413096
-0.173941
0.431361
-0.154417
0.447755
-0.134797
0.462412
-0.115781
0.475419
-0.0972498
0.486636
-0.078277
0.496202
-0.0592017
0.503998
-0.0390412
0.510021
-0.0183121
0.514191
0.00404154
0.5166
0.0271764
0.517318
0.052039
0.516541
0.0764661
0.514539
0.100129
0.511399
0.119522
0.50692
0.132687
0.5009
0.143885
0.49339
0.15664
0.484619
0.171175
0.474751
0.189191
0.463198
0.211728
0.450664
0.235054
0.444722
0.26526
0.44733
0.331974
0.440758
0.404169
0.412545
0.367159
0.37399
0.213074
0.339665
0.0694476
0.312648
0.0320031
0.282042
-0.0661327
-0.0971972
-0.274265
-0.0656072
-0.286309
-0.0256891
-0.351479
0.0135937
-0.354595
0.0535178
-0.364251
0.0943413
-0.373163
0.133134
-0.35859
0.167098
-0.321917
0.196426
-0.284574
0.221783
-0.249798
0.24298
-0.213031
0.260802
-0.182002
0.276284
-0.157972
0.289882
-0.137644
0.302128
-0.122081
0.313434
-0.110011
0.324046
-0.100662
0.334135
-0.0935093
0.343814
-0.0883512
0.353186
-0.0844204
0.362292
-0.0815183
0.37111
-0.0787961
0.379581
-0.0753121
0.387579
-0.068388
0.394785
-0.0584294
0.40105
-0.0486846
0.406364
-0.0392384
0.410711
-0.030188
0.41411
-0.0214403
0.416538
-0.0130678
0.418035
-0.00507476
0.418652
0.00257281
0.418359
0.0101557
0.417162
0.0179655
0.414887
0.0268224
0.411211
0.0395641
0.405495
0.0593234
0.396176
0.106152
0.379181
0.194156
-0.129457
0.162458
-0.306803
0.195743
-0.312863
0.233807
-0.346721
0.266737
-0.309271
0.298961
-0.302628
0.330375
-0.292135
0.358484
-0.263819
0.384315
-0.242601
0.407937
-0.219689
0.428991
-0.194995
0.448046
-0.173472
0.465185
-0.151936
0.480368
-0.130964
0.493897
-0.110778
0.505759
-0.0901377
0.5159
-0.0693423
0.524253
-0.0473923
0.530821
-0.0248784
0.535582
-0.00071764
0.538594
0.0241668
0.539883
0.0507525
0.539624
0.0767279
0.538008
0.101747
0.535152
0.122381
0.530908
0.136935
0.525099
0.149699
0.517753
0.163992
0.509164
0.17977
0.499684
0.198675
0.489261
0.22216
0.476393
0.247925
0.464758
0.276892
0.464334
0.332387
0.469413
0.399193
0.459014
0.377542
0.429208
0.242921
0.393195
0.105604
0.360381
0.0652178
0.317351
-0.0218145
-0.0969234
-0.306798
-0.0636242
-0.319604
-0.0215504
-0.393553
0.0198315
-0.395972
0.061836
-0.406252
0.104761
-0.416088
0.145539
-0.399367
0.181077
-0.357454
0.211666
-0.315161
0.238006
-0.276137
0.25987
-0.234894
0.278125
-0.200255
0.293864
-0.17371
0.307602
-0.15138
0.319929
-0.134405
0.331314
-0.121395
0.341985
-0.111332
0.35218
-0.103702
0.362021
-0.0981902
0.371571
-0.0939675
0.380888
-0.0908319
0.389951
-0.0878552
0.398745
-0.0841027
0.407067
-0.0767058
0.414629
-0.0659869
0.421256
-0.0553078
0.42691
-0.0448887
0.431601
-0.0348754
0.435273
-0.0251073
0.437976
-0.0157663
0.439695
-0.00679259
0.440464
0.00180706
0.440304
0.0103224
0.439144
0.0191382
0.43687
0.0291024
0.43312
0.0433108
0.427268
0.0652186
0.417981
0.115428
0.40155
0.210717
-0.131176
0.165914
-0.341538
0.201035
-0.347983
0.241229
-0.386911
0.275964
-0.344004
0.309899
-0.336559
0.342916
-0.32515
0.372394
-0.293296
0.39949
-0.269695
0.424124
-0.244323
0.446088
-0.216959
0.465906
-0.19329
0.483703
-0.169732
0.499591
-0.146852
0.51372
-0.124906
0.526103
-0.102519
0.536745
-0.079984
0.545665
-0.0563111
0.552821
-0.0320337
0.558145
-0.00604083
0.56164
0.0206716
0.563448
0.0489451
0.563628
0.0765486
0.562386
0.102988
0.559874
0.124893
0.555971
0.140839
0.550407
0.155263
0.543273
0.171126
0.534764
0.188271
0.525269
0.208155
0.51531
0.232141
0.503713
0.259532
0.490502
0.290111
0.484355
0.338516
0.488886
0.39499
0.487165
0.379032
0.466582
0.263347
0.434706
0.137558
0.402343
0.0975911
0.349222
0.0317898
-0.0967684
-0.341202
-0.0617696
-0.354602
-0.017339
-0.437977
0.0262617
-0.439571
0.0705186
-0.450506
0.115735
-0.461301
0.158556
-0.442186
0.195843
-0.394741
0.227802
-0.347119
0.255224
-0.303558
0.27786
-0.25753
0.296619
-0.219013
0.312678
-0.189768
0.326616
-0.165316
0.339028
-0.146817
0.350469
-0.132833
0.361202
-0.122063
0.371475
-0.113972
0.381414
-0.108128
0.391119
-0.10367
0.400617
-0.100328
0.409926
-0.097161
0.418986
-0.0931608
0.427641
-0.0853573
0.435541
-0.0738843
0.442524
-0.0622881
0.448531
-0.0508921
0.453531
-0.0398722
0.457525
-0.0291017
0.460498
-0.0187421
0.462454
-0.00875333
0.463414
0.000841523
0.463371
0.0103608
0.46229
0.0202252
0.460007
0.0313617
0.456228
0.0470463
0.450273
0.0712429
0.441001
0.124689
0.425244
0.226372
-0.13307
0.16974
-0.378206
0.206805
-0.385044
0.249268
-0.429372
0.285866
-0.380597
0.321558
-0.372251
0.356296
-0.359883
0.38727
-0.324267
0.415641
-0.298067
0.441442
-0.270123
0.464345
-0.239863
0.485047
-0.213992
0.503556
-0.18824
0.520075
-0.16337
0.534791
-0.139622
0.547639
-0.115367
0.558859
-0.0912026
0.568304
-0.065755
0.575959
-0.039687
0.581831
-0.0119114
0.585886
0.016619
0.588164
0.0466693
0.58881
0.0759057
0.587961
0.10384
0.58576
0.127097
0.582128
0.144474
0.57683
0.160566
0.569945
0.178017
0.561613
0.196608
0.5521
0.217672
0.542032
0.242216
0.531201
0.270364
0.518784
0.302522
0.509597
0.347691
0.509183
0.395503
0.506628
0.381574
0.488792
0.281227
0.459521
0.16699
0.429042
0.128545
0.373347
0.0888278
-0.0968491
-0.377422
-0.0598554
-0.391591
-0.0130165
-0.484815
0.0329609
-0.485543
0.079581
-0.497123
0.127176
-0.508896
0.172282
-0.48729
0.211423
-0.433881
0.244898
-0.380593
0.273503
-0.332163
0.296991
-0.281017
0.31631
-0.238331
0.332756
-0.206214
0.346903
-0.179461
0.359439
-0.159351
0.370961
-0.144353
0.381746
-0.132847
0.392045
-0.124269
0.402063
-0.118143
0.411894
-0.113499
0.421554
-0.109985
0.431062
-0.106666
0.440392
-0.102486
0.449346
-0.0943073
0.457579
-0.0821126
0.46491
-0.0696138
0.471266
-0.0572432
0.476618
-0.0452179
0.480927
-0.033405
0.484183
-0.0219931
0.486376
-0.0109441
0.487519
-0.000301092
0.487627
0.0102567
0.486627
0.0212331
0.484363
0.033629
0.480551
0.0508563
0.474526
0.0773144
0.465376
0.133836
0.450332
0.241487
-0.135194
0.173943
-0.416953
0.213027
-0.424127
0.257875
-0.474217
0.296415
-0.419135
0.334013
-0.409844
0.370645
-0.396515
0.403126
-0.356746
0.432891
-0.32783
0.459982
-0.297214
0.483931
-0.263812
0.505472
-0.235534
0.52476
-0.207528
0.541859
-0.180469
0.557172
-0.154934
0.570673
-0.128866
0.582379
-0.102909
0.592336
-0.0757107
0.600472
-0.0478222
0.606746
-0.0181855
0.611269
0.012097
0.614038
0.0438999
0.615062
0.074882
0.61459
0.104312
0.612718
0.128969
0.609403
0.14779
0.604438
0.165531
0.597772
0.184683
0.589642
0.204734
0.580256
0.227051
0.570026
0.252463
0.559276
0.281127
0.547767
0.314046
0.538143
0.357311
0.534084
0.399916
0.527701
0.387733
0.508415
0.300317
0.478645
0.196813
0.446649
0.160524
0.393668
0.141998
-0.0969734
-0.415639
-0.0580602
-0.430503
-0.00857541
-0.534293
0.0399096
-0.534026
0.0890396
-0.54625
0.139228
-0.559081
0.186685
-0.534746
0.227836
-0.475032
0.262912
-0.415668
0.292833
-0.362084
0.317256
-0.305441
0.337248
-0.258321
0.354124
-0.223089
0.368551
-0.193886
0.381233
-0.172032
0.392823
-0.155942
0.403641
-0.143663
0.413994
-0.13462
0.424062
-0.12821
0.433968
-0.123403
0.443763
-0.119778
0.453471
-0.116371
0.463042
-0.112054
0.472276
-0.103539
0.480852
-0.0906852
0.488519
-0.0772776
0.49522
-0.063941
0.500897
-0.0508907
0.505528
-0.0380349
0.509062
-0.0255282
0.511518
-0.0134043
0.512888
-0.0016777
0.513131
0.010008
0.512245
0.0221206
0.510022
0.0358267
0.506198
0.0546371
0.500136
0.083448
0.491093
0.142857
0.476873
0.255616
-0.137591
0.178491
-0.45785
0.2197
-0.465333
0.267048
-0.521564
0.307641
-0.459724
0.34731
-0.449513
0.385872
-0.435071
0.420018
-0.39089
0.451297
-0.35911
0.479647
-0.325564
0.504652
-0.288817
0.527135
-0.258017
0.547241
-0.227634
0.565128
-0.198355
0.581014
-0.17082
0.595033
-0.142884
0.607245
-0.11512
0.61767
-0.086135
0.626275
-0.0564252
0.633091
-0.0250002
0.638033
0.00715648
0.641183
0.0407522
0.642645
0.0734228
0.642501
0.104458
0.640945
0.130529
0.63791
0.150829
0.633236
0.170211
0.626862
0.191062
0.618945
0.212656
0.6097
0.236301
0.599445
0.262724
0.588546
0.292026
0.577363
0.325219
0.567946
0.366719
0.562275
0.405671
0.553195
0.396807
0.532242
0.321315
0.501244
0.22796
0.466763
0.195447
0.416305
0.193449
-0.0972236
-0.456005
-0.0561694
-0.471553
-0.00396163
-0.586501
0.0471687
-0.585151
0.0989717
-0.59805
0.151881
-0.61199
0.201878
-0.584741
0.245158
-0.518311
0.281977
-0.452487
0.313277
-0.393384
0.338752
-0.330915
0.359454
-0.279023
0.37684
-0.240474
0.39157
-0.208614
0.404448
-0.184909
0.416126
-0.167619
0.426994
-0.15453
0.437367
-0.144991
0.447474
-0.138315
0.457451
-0.133377
0.467342
-0.129665
0.477197
-0.126224
0.486992
-0.121844
0.496535
-0.113078
0.505405
-0.0995502
0.513395
-0.0852614
0.520433
-0.0709721
0.526446
-0.0568957
0.5314
-0.0429822
0.535247
-0.0293681
0.537967
-0.0161202
0.539537
-0.00324578
0.539976
0.00956904
0.539193
0.0229087
0.53703
0.0379878
0.533222
0.0584429
0.527145
0.0895719
0.518295
0.151703
0.504975
0.26896
-0.14016
0.183288
-0.500976
0.226805
-0.50885
0.276807
-0.571562
0.319613
-0.502529
0.361415
-0.491309
0.401992
-0.475646
0.437949
-0.426847
0.470798
-0.391956
0.500499
-0.355266
0.526688
-0.315007
0.550241
-0.281571
0.57116
-0.248553
0.589762
-0.216957
0.606311
-0.187369
0.620867
-0.157439
0.633604
-0.127855
0.644493
-0.0970237
0.653573
-0.0655046
0.660771
-0.0321976
0.666163
0.00176443
0.6697
0.0372158
0.671493
0.0716303
0.671712
0.104239
0.670455
0.131785
0.667748
0.153537
0.663346
0.174613
0.657236
0.197174
0.649539
0.220351
0.640446
0.245394
0.630279
0.272904
0.619277
0.303046
0.608023
0.336492
0.598525
0.376245
0.591985
0.41253
0.581482
0.407125
0.5596
0.342972
0.527743
0.259837
0.490926
0.232232
0.441749
0.242617
-0.0975686
-0.498593
-0.054293
-0.514827
0.000796744
-0.641583
0.054766
-0.639118
0.109378
-0.652659
0.165139
-0.667747
0.217867
-0.637468
0.263396
-0.56384
0.302088
-0.49118
0.334891
-0.426187
0.361472
-0.357496
0.382978
-0.300529
0.400925
-0.258421
0.416032
-0.22372
0.429111
-0.197986
0.440933
-0.17944
0.451852
-0.165446
0.462259
-0.155397
0.472387
-0.14844
0.482398
-0.143387
0.492388
-0.139653
0.502373
-0.136206
0.512368
-0.131836
0.522147
-0.122855
0.531313
-0.108713
0.539636
-0.0935806
0.546999
-0.0783313
0.553356
-0.063249
0.558622
-0.0482454
0.562774
-0.0335201
0.565766
-0.0191143
0.567591
-0.0050763
0.568201
0.00895176
0.56754
0.0235685
0.565466
0.0400294
0.561689
0.0621814
0.555669
0.0956622
0.547022
0.160318
0.534625
0.281291
-0.142987
0.188508
-0.546496
0.234447
-0.554785
0.287147
-0.62426
0.332371
-0.547747
0.376347
-0.535284
0.419145
-0.518439
0.456932
-0.46463
0.491459
-0.426484
0.522655
-0.386463
0.550104
-0.342457
0.574622
-0.30609
0.596517
-0.270448
0.615843
-0.236283
0.633054
-0.204578
0.648269
-0.172653
0.661485
-0.141071
0.672873
-0.108411
0.682377
-0.075007
0.690033
-0.0398528
0.695778
-0.00397795
0.699672
0.0333233
0.701847
0.069458
0.702329
0.10376
0.701365
0.132753
0.698919
0.155986
0.694801
0.178736
0.688973
0.203006
0.681509
0.227821
0.672616
0.254292
0.662529
0.282996
0.651519
0.314056
0.640109
0.347894
0.630156
0.386191
0.622617
0.420132
0.611024
0.418716
0.588719
0.365322
0.556256
0.292426
0.51744
0.271434
0.469145
0.291645
-0.0980514
-0.543527
-0.0523918
-0.560482
0.00578071
-0.699755
0.0626859
-0.696017
0.120306
-0.710275
0.179117
-0.726559
0.234649
-0.692998
0.282626
-0.611817
0.323287
-0.531841
0.357727
-0.460629
0.385521
-0.38529
0.4079
-0.322907
0.426474
-0.276994
0.441985
-0.23923
0.455336
-0.211336
0.467285
-0.191387
0.478296
-0.176455
0.488721
-0.165821
0.498869
-0.158586
0.508906
-0.153422
0.518953
-0.149698
0.529056
-0.146306
0.539238
-0.142014
0.549265
-0.132876
0.558714
-0.118156
0.567325
-0.102185
0.575
-0.0859982
0.581667
-0.0699074
0.587268
-0.0538376
0.591717
-0.03796
0.595004
-0.0223946
0.597056
-0.0071259
0.597883
0.00812677
0.597392
0.0240593
0.595387
0.04203
0.591714
0.0658495
0.58575
0.10167
0.577411
0.168644
0.56599
0.292702
-0.146012
0.194056
-0.594538
0.242473
-0.603202
0.298194
-0.679977
0.345748
-0.595299
0.392194
-0.581723
0.437243
-0.563487
0.477084
-0.504471
0.513327
-0.462725
0.546068
-0.419205
0.574818
-0.371209
0.600555
-0.331827
0.623351
-0.293244
0.643556
-0.256488
0.661472
-0.222494
0.677265
-0.188446
0.691035
-0.15484
0.702875
-0.12025
0.712788
-0.0849189
0.720796
-0.0478602
0.726917
-0.0100991
0.731188
0.0290529
0.733609
0.0670379
0.734387
0.102982
0.733716
0.133424
0.731539
0.158164
0.72773
0.182545
0.722169
0.208569
0.714925
0.235067
0.70618
0.263039
0.696208
0.29298
0.685223
0.325056
0.673697
0.359444
0.663172
0.396751
0.654372
0.429207
0.641611
0.431335
0.618837
0.387854
0.58579
0.325457
0.545245
0.311936
0.497958
0.338828
-0.0986038
-0.590932
-0.0504392
-0.608646
0.0109609
-0.761147
0.0709663
-0.756021
0.131752
-0.771057
0.193788
-0.788591
0.252361
-0.751571
0.302872
-0.66233
0.345652
-0.574622
0.381801
-0.496778
0.410908
-0.414397
0.434249
-0.346248
0.453509
-0.296253
0.469499
-0.255218
0.483143
-0.224978
0.495279
-0.203522
0.506369
-0.187544
0.516838
-0.176287
0.526997
-0.168743
0.537082
-0.163505
0.547156
-0.159769
0.557363
-0.15651
0.567695
-0.152344
0.577956
-0.143134
0.587668
-0.127866
0.596549
-0.111063
0.604546
-0.0939914
0.611526
-0.0768829
0.617419
-0.0597271
0.622204
-0.0427426
0.625766
-0.0259569
0.628085
-0.00944862
0.629101
0.00710406
0.628776
0.0243775
0.626926
0.0438503
0.623334
0.0693979
0.617519
0.107555
0.609482
0.176645
0.599095
0.30304
-0.149283
0.199952
-0.645205
0.251036
-0.654283
0.309802
-0.738741
0.360038
-0.64553
0.408923
-0.630608
0.456457
-0.611014
0.498309
-0.546319
0.536457
-0.500875
0.570861
-0.453609
0.601049
-0.401398
0.627934
-0.358713
0.651826
-0.317136
0.672876
-0.277537
0.691537
-0.241155
0.707928
-0.204836
0.722276
-0.169187
0.734566
-0.132539
0.744891
-0.0952434
0.753316
-0.0562834
0.759751
-0.0165326
0.764299
0.0245083
0.767018
0.0643203
0.768053