/*--------------------------------*- C++ -*----------------------------------*\
| =========                 |                                                 |
| \\      /  F ield         | OpenFOAM: The Open Source CFD Toolbox           |
|  \\    /   O peration     | Version:  2312                                  |
|   \\  /    A nd           | Website:  www.openfoam.com                      |
|    \\/     M anipulation  |                                                 |
\*---------------------------------------------------------------------------*/
FoamFile
{
    version     2.0;
    format      ascii;
    arch        "LSB;label=32;scalar=64";
    class       volSymmTensorField;
    location    "50";
    object      turbulenceProperties:devReff;
}
// * * * * * * * * * * * * * * * * * * * * * * * * * * * * * * * * * * * * * //

dimensions      [0 2 -2 0 0 0 0];

internalField   nonuniform List<symmTensor> 
10720
(
(0.00121751 0.00206309 -8.47499e-21 -0.00127402 -3.83217e-20 5.65065e-05)
(0.00160972 0.00238576 7.90707e-21 -0.00164706 2.66169e-20 3.73426e-05)
(0.00225229 0.00268647 2.19599e-21 -0.00234139 1.10804e-20 8.90941e-05)
(0.00313773 0.00308834 9.1461e-20 -0.00325309 3.47917e-19 0.000115361)
(0.00435106 0.00346257 -1.8854e-19 -0.00448113 -5.80746e-19 0.00013007)
(0.00606275 0.00371117 -2.21205e-19 -0.00626253 -4.25501e-19 0.000199774)
(0.00839997 0.00383104 4.03795e-20 -0.00865703 -4.25363e-21 0.000257061)
(0.0114716 0.00360598 2.47303e-20 -0.0117915 3.9103e-20 0.000319922)
(0.0154349 0.00277209 7.31045e-20 -0.0158626 -5.90511e-20 0.000427759)
(0.0203848 0.00111565 -1.61669e-20 -0.0209187 -1.62201e-20 0.000533956)
(0.0263621 -0.00176161 1.92627e-18 -0.0270316 9.3397e-19 0.000669506)
(0.0335776 -0.00628481 -4.10001e-19 -0.0344156 -3.14668e-19 0.000837948)
(0.0423294 -0.0130823 8.42887e-19 -0.0433773 -1.26444e-18 0.00104796)
(0.0533274 -0.023199 3.96272e-19 -0.0546427 8.90463e-19 0.00131526)
(0.0672654 -0.0382 6.9311e-19 -0.0689297 -1.22882e-18 0.00166433)
(0.0855328 -0.0608833 9.99824e-20 -0.0876676 4.32099e-18 0.00213481)
(0.109895 -0.0959844 2.35371e-17 -0.112784 1.14439e-17 0.00288901)
(0.144184 -0.152283 -3.52919e-18 -0.148194 7.42264e-18 0.00401023)
(0.192718 -0.244757 -2.88532e-18 -0.198574 -3.53065e-17 0.00585589)
(0.265587 -0.403288 1.6026e-18 -0.274296 -2.05473e-19 0.008709)
(0.379055 -0.686445 -5.2001e-17 -0.39263 -3.99779e-17 0.0135756)
(0.583888 -1.25416 1.07891e-16 -0.605535 2.07746e-16 0.0216476)
(0.851726 -2.20864 -8.21454e-17 -0.885803 -3.03486e-16 0.0340768)
(1.62437 -5.44623 1.99474e-16 -1.70321 5.93384e-17 0.0788357)
(1.14869 -5.74226 -2.57772e-16 -1.21683 -1.21063e-17 0.0681395)
(0.437303 -4.22246 1.77166e-17 -0.467249 -1.28193e-15 0.0299461)
(0.0894552 -3.23366 2.78787e-16 -0.0948222 -5.22452e-17 0.00536699)
(-0.0653602 -2.37355 2.09931e-16 0.0668213 4.48109e-16 -0.00146114)
(-0.138653 -1.8606 6.20154e-16 0.135751 8.67542e-16 0.00290235)
(-0.168353 -1.56186 1.01364e-16 0.163672 4.10542e-15 0.00468035)
(-0.155098 -1.15191 -9.83329e-16 0.146593 -1.5453e-15 0.00850524)
(-0.173106 -0.849938 -5.26152e-16 0.160326 -2.63687e-15 0.01278)
(-0.274383 -1.04743 -1.13521e-15 0.276386 -3.59538e-15 -0.00200347)
(-0.101145 -0.546805 -7.35964e-16 0.114961 -6.48294e-15 -0.0138162)
(0.16582 0.165106 1.04861e-15 -0.177381 2.66149e-15 0.0115607)
(0.301109 0.652832 7.0438e-17 -0.322303 1.81319e-15 0.0211948)
(0.283846 0.692566 -1.63286e-16 -0.292979 2.24922e-17 0.00913287)
(0.246343 0.549424 -2.05128e-16 -0.233675 -2.18713e-15 -0.0126687)
(0.305023 1.07455 3.66863e-16 -0.352813 9.42346e-16 0.0477896)
(0.000883476 0.00179728 2.54887e-21 -0.000900346 -4.98729e-21 1.68707e-05)
(0.000680428 0.00153519 -1.74103e-20 -0.000715115 2.12076e-20 3.46865e-05)
(0.000507399 0.00125301 -5.88244e-20 -0.000521466 -5.64181e-20 1.40672e-05)
(0.000401746 0.00099534 1.25631e-19 -0.000397778 -1.53161e-19 -3.96774e-06)
(0.00036925 0.000761459 -2.08066e-19 -0.000336431 1.16576e-19 -3.28185e-05)
(0.000409256 0.000602099 -2.45463e-19 -0.000366235 3.86704e-19 -4.30207e-05)
(0.000559058 0.000583534 3.01644e-19 -0.000531579 5.44582e-20 -2.74796e-05)
(0.000801818 0.000653885 1.10045e-19 -0.0007959 -4.43549e-19 -5.91809e-06)
(0.00116358 0.000842466 1.1671e-19 -0.00117002 2.22146e-20 6.43737e-06)
(0.00167921 0.00123671 -1.04833e-19 -0.00169916 -3.62536e-20 1.99479e-05)
(0.00241729 0.00195985 1.02831e-19 -0.0024562 2.40083e-19 3.89095e-05)
(0.00346618 0.0031854 2.94023e-19 -0.0035276 -1.56897e-19 6.14236e-05)
(0.00488578 0.00514569 -4.64242e-19 -0.00497893 7.77977e-20 9.31577e-05)
(0.00670543 0.00808858 3.50316e-19 -0.00683918 -7.81652e-20 0.000133751)
(0.00895915 0.0122516 1.61513e-18 -0.00913112 -1.49811e-19 0.00017197)
(0.01173 0.0180992 1.53557e-18 -0.0119566 -3.92348e-19 0.000226605)
(0.0153367 0.0264712 4.75002e-19 -0.0156229 3.53776e-19 0.000286261)
(0.0202901 0.0389951 -4.65831e-20 -0.0206639 4.77648e-19 0.000373802)
(0.0276021 0.0587886 2.00574e-19 -0.0280995 -1.11068e-19 0.000497392)
(0.0385956 0.0912532 2.79615e-19 -0.0393128 3.49605e-20 0.000717224)
(0.0559349 0.147353 -4.54456e-19 -0.0570161 -2.68588e-18 0.00108125)
(0.0835346 0.248324 -2.4005e-18 -0.0853144 2.35551e-19 0.0017798)
(0.130676 0.448136 2.50635e-18 -0.133887 2.88309e-19 0.00321157)
(0.197135 0.815071 2.90336e-19 -0.20342 1.31268e-18 0.00628543)
(0.316383 1.66785 1.3409e-16 -0.329933 -6.79746e-18 0.0135502)
(0.476582 3.41036 3.43629e-18 -0.504679 1.36453e-17 0.0280963)
(0.704288 7.67062 -7.65783e-19 -0.770028 -2.82244e-17 0.0657407)
(0.60408 13.2651 -7.38163e-18 -0.715276 2.2678e-19 0.111196)
(0.0114481 16.6533 8.48463e-18 -0.135799 1.14904e-19 0.124351)
(-0.750025 17.8297 4.37389e-16 0.638014 -6.2457e-17 0.112011)
(-1.48826 18.0695 -3.83029e-17 1.39441 -1.87856e-18 0.0938451)
(-2.16576 18.0029 -9.07161e-17 2.08932 2.8364e-16 0.0764367)
(-2.77319 17.7612 -2.74949e-15 2.71289 -5.14324e-16 0.0603069)
(-3.30169 17.3752 -4.7306e-15 3.25618 1.11363e-15 0.0455132)
(-3.74804 16.8586 4.34455e-15 3.71434 3.13166e-16 0.0336998)
(-4.1179 16.2419 -1.74122e-17 4.0918 -3.76106e-16 0.0260988)
(-4.38851 15.4124 -6.36788e-17 4.36233 3.22392e-16 0.0261847)
(-4.54258 14.3874 -1.16454e-16 4.52113 3.38306e-17 0.021448)
(-4.24502 11.8975 -4.14922e-15 4.17106 -1.31288e-16 0.0739617)
(0.000534014 -0.000306046 -2.70988e-21 -0.000504434 -7.27052e-21 -2.95794e-05)
(0.000471972 -0.000398392 -5.43636e-23 -0.00043503 1.04877e-20 -3.69423e-05)
(0.000377451 -0.000482609 3.81199e-21 -0.000329833 1.07829e-21 -4.76185e-05)
(0.000273858 -0.000529598 4.40558e-21 -0.000216207 -2.16905e-22 -5.76507e-05)
(0.000167123 -0.000544618 2.34765e-20 -0.000100933 6.01437e-20 -6.61898e-05)
(6.20885e-05 -0.000531618 5.34517e-20 1.28703e-05 1.04286e-19 -7.49588e-05)
(-2.38098e-05 -0.000492131 -1.30663e-20 0.000106645 2.56559e-21 -8.28353e-05)
(-8.73531e-05 -0.00043584 -1.45829e-20 0.000176111 -5.86741e-21 -8.87578e-05)
(-0.000129677 -0.000372607 -1.42467e-19 0.000223117 -1.5097e-19 -9.34393e-05)
(-0.000149691 -0.000309967 -3.70147e-20 0.000246289 -1.61431e-20 -9.65979e-05)
(-0.000153311 -0.000253225 -4.16605e-19 0.000251546 -3.88956e-19 -9.82353e-05)
(-0.000145858 -0.00020606 -5.15795e-21 0.000244852 5.08333e-20 -9.89935e-05)
(-0.000130582 -0.000169502 -1.91098e-19 0.000229956 -7.86916e-21 -9.93746e-05)
(-0.000111489 -0.000144279 1.25758e-19 0.000209336 7.45057e-20 -9.78469e-05)
(-9.50053e-05 -0.000141901 -2.61615e-19 0.000195868 -8.21654e-20 -0.000100863)
(-8.18474e-05 -0.000174428 6.68682e-19 0.00020075 1.71223e-19 -0.000118902)
(-6.75101e-05 -0.000338015 -1.07478e-18 0.000266285 -8.50114e-19 -0.000198775)
(5.19531e-05 -0.000982142 -2.34333e-18 0.000397345 -8.13128e-19 -0.000449298)
(0.000664799 -0.00280011 -5.392e-18 0.000242186 1.85955e-18 -0.000906985)
(0.00278346 -0.00806168 1.10129e-18 -0.00107137 -1.29369e-20 -0.00171209)
(0.0092142 -0.0233716 1.22702e-17 -0.00621038 1.36004e-17 -0.00300381)
(0.0364143 -0.089953 -3.02819e-17 -0.0300245 -6.29783e-17 -0.00638976)
(0.0944762 -0.246711 7.24834e-19 -0.085954 8.9986e-17 -0.00852219)
(0.403021 -1.20075 2.94507e-18 -0.38719 -4.95689e-17 -0.0158313)
(0.88165 -3.19304 -0 -0.879605 -0 -0.00204529)
(1.16923 -5.60108 -4.75638e-17 -1.19662 1.23908e-15 0.0273886)
(1.0103 -7.59108 -5.24405e-17 -1.04726 6.59928e-17 0.0369638)
(0.444291 -8.04474 -1.72991e-16 -0.466771 -1.16013e-15 0.02248)
(-0.0839957 -7.20676 -5.76196e-16 0.0788361 -5.233e-15 0.00515956)
(-0.346453 -5.95255 -3.08611e-16 0.361797 -1.70003e-14 -0.0153437)
(-0.504919 -4.90001 3.90087e-16 0.52572 9.63297e-15 -0.0208009)
(-0.663329 -3.92801 5.51911e-16 0.645097 1.47441e-14 0.0182322)
(-0.461581 -2.61084 8.29147e-16 0.433183 1.05753e-14 0.0283979)
(-0.00803706 -1.33671 5.74149e-15 0.0338444 3.4689e-14 -0.0258074)
(-0.174278 -1.69939 -1.54202e-15 0.236424 -1.06598e-14 -0.0621464)
(-0.78179 -2.47058 -9.9369e-16 0.800136 -4.29304e-15 -0.0183457)
(-1.22756 -2.91154 -4.30199e-16 1.21816 1.18724e-16 0.00939956)
(-1.44566 -3.55013 2.10394e-15 1.45117 1.50685e-14 -0.00550969)
(-1.99194 -3.14268 -1.90526e-15 1.92035 -4.37142e-15 0.071592)
(0.000573862 -0.000192716 5.04357e-21 -0.000552885 5.47715e-21 -2.09763e-05)
(0.000585785 -7.54248e-05 4.79272e-21 -0.000571467 -1.08667e-19 -1.43181e-05)
(0.000563862 6.1887e-05 -7.18035e-20 -0.000559794 6.27515e-21 -4.06759e-06)
(0.000495757 0.000198622 3.74074e-20 -0.000498875 1.75097e-19 3.11884e-06)
(0.000391077 0.000304656 2.32949e-19 -0.000399111 -1.68018e-19 8.03411e-06)
(0.000275457 0.000368007 -1.45859e-19 -0.000287356 -1.41436e-19 1.1899e-05)
(0.000151228 0.000395513 -7.35635e-20 -0.000162253 -1.17637e-19 1.10244e-05)
(2.52193e-05 0.000381205 -2.47432e-19 -2.94467e-05 1.05454e-19 4.22742e-06)
(-7.42967e-05 0.000329484 -2.177e-20 7.93879e-05 1.31933e-19 -5.09121e-06)
(-0.000134935 0.000260238 -7.59448e-20 0.000148464 2.10399e-20 -1.35291e-05)
(-0.000159621 0.000192041 4.08206e-20 0.00017958 -1.14849e-19 -1.99585e-05)
(-0.000159478 0.000135645 -1.51314e-20 0.000183782 -3.06275e-20 -2.4304e-05)
(-0.000145663 9.36748e-05 2.92204e-20 0.000172477 7.63109e-20 -2.68134e-05)
(-0.000125782 6.54256e-05 -4.8738e-20 0.000153562 -8.15064e-21 -2.778e-05)
(-0.000105175 4.81284e-05 -1.49115e-20 0.000132661 -4.71485e-20 -2.74859e-05)
(-8.68185e-05 3.80009e-05 -1.09523e-19 0.00011316 4.80195e-21 -2.63418e-05)
(-7.12203e-05 3.247e-05 -7.91067e-21 9.59118e-05 2.57968e-21 -2.46915e-05)
(-5.85685e-05 2.96714e-05 -2.10894e-22 8.13607e-05 -3.31477e-21 -2.27923e-05)
(-4.84603e-05 2.80769e-05 -1.35391e-20 6.9208e-05 5.07318e-21 -2.07477e-05)
(-4.0476e-05 2.68932e-05 1.51974e-20 5.92415e-05 -4.20598e-21 -1.87655e-05)
(-3.42361e-05 2.56809e-05 -1.50944e-19 5.12829e-05 4.88936e-20 -1.70468e-05)
(-2.9738e-05 2.45016e-05 -2.19241e-20 4.56516e-05 3.16397e-21 -1.59137e-05)
(-2.71226e-05 2.38717e-05 7.83545e-21 4.30111e-05 -2.97057e-21 -1.58885e-05)
(-2.53564e-05 2.41612e-05 1.20941e-19 4.22465e-05 -1.45774e-20 -1.68901e-05)
(-7.40768e-05 8.285e-05 -3.63116e-19 0.000131358 3.45102e-20 -5.72807e-05)
(-0.000584924 0.000794741 -2.64477e-18 0.00109718 -1.30615e-19 -0.000512252)
(-0.00352342 0.00565816 2.1184e-19 0.00686406 8.86329e-19 -0.00334064)
(-0.0162018 0.0311528 3.12696e-20 0.0321927 1.63606e-18 -0.0159908)
(-0.0360336 0.0873642 -7.81174e-20 0.0717904 -1.06148e-21 -0.0357568)
(-0.0527331 0.164283 3.30641e-18 0.102695 4.25129e-17 -0.0499623)
(-0.0637208 0.244295 2.35976e-18 0.116765 -4.96457e-17 -0.0530445)
(-0.0722062 0.311352 5.21389e-17 0.120679 -1.4228e-16 -0.0484731)
(-0.0821806 0.362658 2.99234e-15 0.124369 1.64184e-16 -0.0421885)
(-0.0948719 0.40427 2.77019e-15 0.13208 -1.0814e-15 -0.0372082)
(-0.110329 0.441304 -2.56571e-15 0.143877 1.79402e-16 -0.0335479)
(-0.126866 0.481053 2.403e-15 0.157526 2.97289e-16 -0.0306598)
(-0.146052 0.521941 -4.32473e-15 0.172879 -6.07869e-16 -0.026827)
(-0.170859 0.636506 -3.97043e-15 0.197427 -6.46313e-16 -0.0265688)
(-0.225894 0.868556 -3.86717e-15 0.201182 -2.96162e-16 0.0247119)
(0.000360295 -0.000198752 -9.40337e-22 -0.000370896 1.93308e-21 1.06009e-05)
(0.00030686 -0.000261221 -3.57181e-20 -0.000321178 -5.9274e-20 1.43179e-05)
(0.00023234 -0.000313221 2.48326e-20 -0.000250693 2.89983e-20 1.83535e-05)
(0.000144516 -0.000343284 3.1884e-20 -0.000168247 4.44475e-20 2.3731e-05)
(5.33388e-05 -0.000350793 5.93808e-20 -8.1933e-05 8.50175e-20 2.85943e-05)
(-3.73084e-05 -0.000333842 -1.74244e-19 3.49923e-06 -2.48779e-19 3.38092e-05)
(-0.00011776 -0.000293989 1.17262e-19 7.82002e-05 1.74407e-19 3.95602e-05)
(-0.000181066 -0.000238354 1.41877e-19 0.000136457 1.37761e-19 4.46098e-05)
(-0.000225561 -0.000172304 -6.52223e-21 0.000176278 1.39455e-20 4.92834e-05)
(-0.000250211 -0.000103348 1.05365e-19 0.000196602 1.45986e-19 5.36093e-05)
(-0.000257019 -3.71592e-05 -1.83482e-19 0.00019995 -2.83471e-20 5.70695e-05)
(-0.0002493 2.27e-05 2.71622e-19 0.000189323 2.71709e-19 5.99771e-05)
(-0.000230948 7.40313e-05 1.28667e-19 0.000168663 5.98048e-20 6.2285e-05)
(-0.000204767 0.000116146 5.3218e-20 0.00014085 -4.9294e-20 6.39175e-05)
(-0.00017675 0.00014912 1.87533e-19 0.000113301 1.70778e-19 6.3449e-05)
(-0.000153769 0.000177932 -4.631e-19 9.11298e-05 -4.42465e-19 6.26396e-05)
(-0.000128465 0.000191362 9.96847e-20 7.13683e-05 1.53415e-19 5.7097e-05)
(-0.000108738 0.000199203 9.10532e-19 5.79882e-05 2.71812e-19 5.075e-05)
(-6.74579e-05 0.000145638 2.00842e-19 3.59042e-05 1.38661e-19 3.15537e-05)
(-5.67151e-05 0.000135444 -5.32103e-20 3.18867e-05 -4.35785e-21 2.48284e-05)
(-0.000737577 0.00180832 8.23554e-19 0.000455067 -1.73816e-18 0.00028251)
(-0.00019405 0.000458402 5.05669e-20 0.000129013 3.95014e-19 6.50371e-05)
(-7.05263e-05 0.000136113 1.32038e-18 2.38607e-05 -1.81158e-19 4.66656e-05)
(0.00293036 -0.00866184 -6.96008e-18 -0.00292637 -2.76916e-18 -3.99577e-06)
(0.0498968 -0.167658 1.77797e-19 -0.0479153 8.73238e-19 -0.00198147)
(0.219109 -0.89202 -1.351e-16 -0.211515 2.44564e-17 -0.00759415)
(0.53069 -2.78729 4.85348e-17 -0.518244 3.23763e-17 -0.0124459)
(0.769437 -5.9208 -8.48533e-17 -0.757809 -1.03925e-17 -0.0116277)
(0.539202 -8.26385 -1.24705e-15 -0.536956 1.93801e-15 -0.00224628)
(0.0414598 -8.42165 -7.9571e-16 -0.0361356 -5.74547e-17 -0.00532415)
(-0.396725 -7.51994 3.46512e-15 0.408586 -1.46914e-15 -0.011861)
(-0.692536 -6.17688 1.60683e-15 0.668198 2.68368e-15 0.024338)
(-0.45375 -4.28349 3.82921e-16 0.4178 7.11119e-15 0.0359498)
(-0.019947 -3.11778 1.84513e-15 0.0420861 -8.96335e-15 -0.0221391)
(-0.601699 -4.14831 -2.558e-16 0.681774 -2.89971e-15 -0.0800755)
(-1.50953 -4.62569 -2.77633e-15 1.53924 -1.67624e-14 -0.0297026)
(-1.92125 -4.36499 -1.04923e-17 1.92435 -4.64042e-15 -0.00310415)
(-1.67929 -3.87072 6.11028e-16 1.73734 -6.2462e-15 -0.058048)
(-2.23874 -3.76247 -8.52356e-16 2.20999 2.37888e-17 0.0287531)
(0.000398408 -0.000123701 -9.86791e-21 -0.000407257 -1.65736e-20 8.84855e-06)
(0.0004176 -4.61354e-05 -4.25809e-21 -0.000423602 2.34331e-20 6.00222e-06)
(0.000416069 4.60802e-05 1.07894e-19 -0.00042041 7.77706e-20 4.34028e-06)
(0.000384016 0.000137802 -8.17759e-20 -0.000384924 -1.19295e-20 9.07797e-07)
(0.00032176 0.000217859 5.65343e-21 -0.000321297 1.29926e-20 -4.62806e-07)
(0.000238518 0.000274866 5.85144e-20 -0.000239137 1.33906e-19 6.18739e-07)
(0.000144286 0.00030666 4.62759e-20 -0.000145436 3.34042e-20 1.14961e-06)
(5.03353e-05 0.000304078 2.57e-19 -5.13389e-05 8.60522e-20 1.00365e-06)
(-2.72469e-05 0.000270558 8.26622e-20 2.52349e-05 -5.37277e-20 2.01197e-06)
(-8.06662e-05 0.000219102 1.11618e-19 7.63878e-05 1.03603e-20 4.27839e-06)
(-0.000109056 0.00016254 -1.74589e-19 0.000102004 -1.62886e-20 7.05191e-06)
(-0.000117302 0.000110609 -8.47808e-20 0.000107603 1.0985e-19 9.69894e-06)
(-0.000112242 6.79046e-05 1.76692e-19 0.000100197 -7.64954e-20 1.20456e-05)
(-9.96632e-05 3.57187e-05 5.415e-20 8.55889e-05 -5.61588e-22 1.40743e-05)
(-8.46566e-05 1.34875e-05 -1.03307e-19 6.92111e-05 5.62178e-20 1.54455e-05)
(-7.0164e-05 -1.24308e-06 -4.67915e-20 5.37619e-05 6.929e-20 1.64021e-05)
(-5.75693e-05 -1.04562e-05 1.63359e-19 4.06655e-05 -6.50215e-20 1.69037e-05)
(-4.72853e-05 -1.6031e-05 1.15175e-19 3.01889e-05 -2.29941e-20 1.70964e-05)
(-3.94154e-05 -1.94391e-05 4.00196e-20 2.24472e-05 -6.49406e-21 1.69682e-05)
(-3.34033e-05 -2.19132e-05 -1.4139e-20 1.66568e-05 2.61887e-20 1.67465e-05)
(-2.87635e-05 -2.40989e-05 2.23634e-19 1.23594e-05 -1.57977e-20 1.64042e-05)
(-2.47551e-05 -2.6609e-05 2.98154e-21 8.63011e-06 -1.27855e-20 1.6125e-05)
(-2.04243e-05 -2.96555e-05 -4.20588e-22 4.47422e-06 -4.86991e-22 1.59501e-05)
(-1.4184e-05 -3.26636e-05 -1.64308e-21 -2.24288e-06 1.4342e-21 1.64269e-05)
(-6.02318e-06 -3.34271e-05 3.34565e-21 -1.13892e-05 -8.69036e-21 1.74123e-05)
(1.94403e-06 -3.13404e-05 3.38749e-19 -2.03521e-05 -2.35813e-20 1.84081e-05)
(8.00268e-06 -2.61349e-05 -8.13558e-21 -2.64152e-05 5.15094e-22 1.84125e-05)
(1.22233e-05 -2.14299e-05 -3.33769e-20 -3.11343e-05 -2.07417e-21 1.89111e-05)
(0.000244372 -0.000258972 -1.13182e-20 -0.000557336 2.36305e-21 0.000312964)
(0.00109177 -0.000482019 -5.01474e-18 -0.00235604 -1.48418e-19 0.00126427)
(0.00250327 0.00122988 3.00972e-17 -0.00529677 5.01329e-18 0.0027935)
(0.00311712 0.00866866 -4.95142e-18 -0.0068732 -5.51598e-20 0.00375608)
(0.00135428 0.0248778 -3.87502e-16 -0.00462662 9.18375e-17 0.00327233)
(-0.00338616 0.0505482 9.56515e-19 0.00189455 8.36883e-17 0.00149161)
(-0.010932 0.0839555 1.85252e-17 0.0116666 -1.68213e-16 -0.000734669)
(-0.018917 0.121651 -6.43186e-18 0.0213832 2.81102e-16 -0.00246621)
(-0.0271772 0.159211 -2.8108e-18 0.0305513 -4.26503e-16 -0.00337412)
(-0.0172647 0.19286 2.68407e-15 0.0180368 5.42486e-16 -0.000772079)
(-0.0367259 0.274638 5.22921e-15 0.0266599 1.5303e-15 0.010066)
(0.000291633 -0.000161075 -7.37577e-21 -0.000288984 -7.62736e-21 -2.64867e-06)
(0.000258504 -0.000210092 -1.07688e-20 -0.000255147 -2.10793e-20 -3.35681e-06)
(0.00021083 -0.000255434 2.62718e-20 -0.000205747 2.47545e-20 -5.08269e-06)
(0.000153745 -0.000289092 1.56521e-20 -0.000146817 3.61819e-20 -6.92782e-06)
(9.16586e-05 -0.000307558 3.15341e-21 -8.27161e-05 1.32618e-21 -8.94252e-06)
(2.69167e-05 -0.000310177 1.00509e-21 -1.55568e-05 7.32847e-21 -1.13599e-05)
(-3.3939e-05 -0.000297294 2.38665e-19 4.79354e-05 2.38244e-19 -1.39965e-05)
(-8.5959e-05 -0.000271034 -2.27795e-19 0.000102747 -2.60222e-19 -1.67884e-05)
(-0.000127045 -0.000234995 3.38871e-20 0.000146952 9.26236e-21 -1.99061e-05)
(-0.000155153 -0.000193741 2.85315e-19 0.000178027 2.11428e-19 -2.28743e-05)
(-0.000170689 -0.00015106 2.42292e-19 0.000196498 2.26494e-19 -2.58086e-05)
(-0.000175217 -0.000110202 2.5441e-19 0.000203744 9.2919e-20 -2.85274e-05)
(-0.000170813 -7.35481e-05 -2.76615e-19 0.000201845 -2.02627e-19 -3.10329e-05)
(-0.00015951 -4.22833e-05 -1.91201e-19 0.000192725 -1.67471e-19 -3.32143e-05)
(-0.000143321 -1.69951e-05 1.52559e-20 0.000178147 -5.17273e-20 -3.4826e-05)
(-0.000123747 1.57505e-06 -4.21275e-19 0.000159735 9.01504e-21 -3.59877e-05)
(-0.000101518 1.63151e-05 -1.20799e-19 0.000136771 -1.40669e-19 -3.5253e-05)
(-7.89475e-05 2.78962e-05 -7.0048e-19 0.000112196 -5.1333e-19 -3.32481e-05)
(-5.53333e-05 3.64131e-05 6.03507e-20 8.34299e-05 -8.8281e-20 -2.80966e-05)
(-3.91829e-05 4.5544e-05 3.09632e-20 6.18121e-05 -6.1403e-20 -2.26292e-05)
(-2.38802e-05 4.36369e-05 -2.22327e-19 3.63066e-05 -8.24016e-21 -1.24265e-05)
(-2.99636e-05 6.58657e-05 3.87437e-20 3.94554e-05 8.66889e-21 -9.49181e-06)
(-3.72637e-05 8.7699e-05 -1.8987e-19 4.34162e-05 -4.06769e-20 -6.15253e-06)
(-0.00049655 0.00132123 -9.46587e-19 0.000557065 7.80034e-19 -6.05146e-05)
(-0.00179866 0.00619675 1.73417e-18 0.00224271 1.41486e-19 -0.000444055)
(0.00135746 -0.00384694 5.26086e-18 -0.00106675 2.79943e-18 -0.000290711)
(0.0285306 -0.11657 -2.82254e-18 -0.0268038 6.1668e-19 -0.00172682)
(0.179575 -0.986116 1.89561e-17 -0.173933 1.01463e-18 -0.00564193)
(0.462826 -3.73802 5.95669e-16 -0.454228 1.93607e-16 -0.00859744)
(0.464383 -7.19233 -1.01337e-16 -0.459222 1.52567e-15 -0.00516157)
(0.0148563 -8.72277 -1.8087e-15 -0.0180898 -3.67052e-15 0.0032335)
(-0.441036 -8.03659 4.20598e-15 0.416353 -6.16184e-15 0.0246836)
(-0.340725 -6.11259 2.01212e-15 0.319332 -1.1016e-16 0.021393)
(-0.114749 -5.09783 -1.16697e-15 0.137669 -1.32964e-14 -0.0229204)
(-0.919601 -5.99499 -2.8712e-15 0.976412 -6.77986e-15 -0.056811)
(-1.98549 -6.11296 2.05139e-15 1.99965 1.24283e-14 -0.0141565)
(-2.39717 -5.42316 -4.6305e-15 2.39355 5.99759e-16 0.00361793)
(-1.9298 -4.34391 -2.65416e-15 1.98759 -2.77551e-15 -0.0577929)
(-2.20646 -3.82927 2.33965e-15 2.15813 7.58578e-16 0.0483343)
(0.00031356 -0.000103579 -2.38447e-21 -0.00031279 7.5881e-21 -7.69693e-07)
(0.000323656 -4.48252e-05 6.93355e-21 -0.000323443 6.19451e-20 -2.12638e-07)
(0.000319251 2.42938e-05 3.38221e-20 -0.00032047 4.10593e-20 1.21866e-06)
(0.000296228 9.32927e-05 7.23166e-20 -0.000296431 -3.99162e-20 2.03389e-07)
(0.000254436 0.000155116 -1.3562e-19 -0.000254205 -7.15097e-20 -2.31025e-07)
(0.000197569 0.00020263 -3.31134e-20 -0.000197701 -8.22162e-20 1.31916e-07)
(0.000129257 0.000231219 -1.60604e-19 -0.000130139 -6.24047e-20 8.82157e-07)
(5.8809e-05 0.000236033 -1.45366e-19 -5.97799e-05 1.00495e-20 9.70927e-07)
(-2.99734e-06 0.000219535 -2.38641e-21 2.29998e-06 -3.77563e-20 6.97361e-07)
(-5.04422e-05 0.00018888 7.83889e-20 5.03246e-05 -4.74738e-20 1.17584e-07)
(-8.12212e-05 0.000151719 3.8973e-20 8.21187e-05 8.75156e-20 -8.97558e-07)
(-9.67946e-05 0.000114834 1.44064e-19 9.90265e-05 -5.94941e-20 -2.23189e-06)
(-0.00010081 8.24149e-05 -1.17691e-19 0.000104459 -4.65221e-20 -3.6484e-06)
(-9.7224e-05 5.63965e-05 8.32074e-21 0.000102241 1.97524e-20 -5.0173e-06)
(-8.95822e-05 3.72256e-05 1.27869e-19 9.59015e-05 -3.54423e-20 -6.31926e-06)
(-8.05233e-05 2.37327e-05 2.0463e-19 8.7885e-05 -3.14451e-20 -7.36169e-06)
(-7.16199e-05 1.46552e-05 -1.57218e-19 7.97874e-05 4.92398e-21 -8.16759e-06)
(-6.36457e-05 8.66568e-06 -2.02173e-20 7.23863e-05 -2.67894e-20 -8.74055e-06)
(-5.6987e-05 4.58934e-06 -7.64221e-21 6.61382e-05 5.135e-21 -9.15122e-06)
(-5.15347e-05 1.38857e-06 2.19922e-19 6.08955e-05 -5.74212e-20 -9.36081e-06)
(-4.70454e-05 -1.53719e-06 2.25261e-20 5.6502e-05 -1.92202e-20 -9.4566e-06)
(-4.30595e-05 -4.65968e-06 -2.07993e-19 5.24879e-05 3.82833e-20 -9.42837e-06)
(-3.89636e-05 -8.16689e-06 -3.01054e-21 4.82871e-05 7.22469e-21 -9.32351e-06)
(-3.39654e-05 -1.15851e-05 -8.43706e-22 4.30914e-05 -3.73694e-22 -9.12594e-06)
(-2.83725e-05 -1.35149e-05 -1.21493e-21 3.74933e-05 8.87747e-23 -9.12084e-06)
(-2.3538e-05 -1.37049e-05 -1.47824e-19 3.30691e-05 3.10308e-20 -9.53107e-06)
(-1.98458e-05 -1.30615e-05 1.90024e-21 2.98956e-05 -3.91618e-22 -1.00498e-05)
(-1.72136e-05 -1.23504e-05 3.25008e-20 2.77958e-05 -3.99622e-21 -1.05822e-05)
(-1.38867e-05 -1.08505e-05 -1.77791e-21 2.39426e-05 -1.38575e-23 -1.00558e-05)
(-1.17622e-05 -1.03934e-05 -7.09527e-22 2.15809e-05 -1.40148e-20 -9.81877e-06)
(-4.83203e-06 -5.19165e-06 -5.87386e-20 9.51266e-06 7.19239e-21 -4.68063e-06)
(-4.47922e-06 -6.43478e-06 -1.1006e-21 9.92157e-06 -6.45871e-23 -5.44235e-06)
(-3.95786e-05 -9.48782e-05 1.3366e-19 0.000124028 -2.25269e-19 -8.44493e-05)
(6.0722e-05 -2.44263e-05 2.81351e-17 9.34748e-05 6.5412e-18 -0.000154197)
(0.00046975 0.00101542 -1.05047e-18 -0.00038017 -1.28629e-19 -8.95797e-05)
(0.00137756 0.00478629 -2.50765e-16 -0.00155077 -6.41793e-18 0.000173209)
(0.00232582 0.0145303 1.60497e-15 -0.00287463 2.23386e-16 0.000548814)
(0.00800258 0.0365658 3.6022e-18 -0.00932535 -5.20556e-17 0.00132277)
(-0.000618853 0.107654 1.88389e-16 -0.00281746 -1.04755e-15 0.00343631)
(0.000224212 -0.000122811 -5.83272e-21 -0.000225018 -3.85184e-21 8.06543e-07)
(0.000197918 -0.000159535 -1.4309e-20 -0.000199381 -2.06847e-20 1.46255e-06)
(0.000161156 -0.00019335 4.87341e-20 -0.000162916 6.20037e-20 1.7602e-06)
(0.00011664 -0.000218263 -1.97453e-19 -0.000119027 -2.07096e-19 2.3873e-06)
(6.76705e-05 -0.000231963 4.86919e-20 -7.09267e-05 3.35275e-20 3.25626e-06)
(1.60024e-05 -0.000233529 1.01563e-19 -2.01016e-05 1.00621e-19 4.09926e-06)
(-3.37138e-05 -0.000222494 -9.56766e-20 2.85125e-05 -1.10606e-19 5.20126e-06)
(-7.76971e-05 -0.000200108 -2.45496e-20 7.12575e-05 -1.77043e-21 6.4396e-06)
(-0.000113497 -0.00016861 -3.3969e-19 0.000105795 -2.91174e-19 7.70199e-06)
(-0.000139174 -0.000131298 -7.5047e-20 0.000129974 -1.1463e-19 9.20062e-06)
(-0.000154243 -9.13016e-05 6.5861e-21 0.00014348 -2.32274e-20 1.07633e-05)
(-0.000159224 -5.15453e-05 -1.83662e-19 0.000146818 -1.94624e-19 1.24056e-05)
(-0.00015536 -1.44426e-05 8.68025e-20 0.000141257 8.97529e-20 1.41026e-05)
(-0.000144257 1.84255e-05 -3.3317e-19 0.000128416 -1.67874e-19 1.58409e-05)
(-0.000127574 4.5843e-05 6.0057e-20 0.000110069 3.33672e-20 1.75051e-05)
(-0.000107281 6.74457e-05 3.29643e-19 8.81691e-05 2.51963e-19 1.91122e-05)
(-8.5617e-05 8.28313e-05 -4.29443e-19 6.55141e-05 -1.25022e-19 2.01029e-05)
(-6.43069e-05 9.1165e-05 -7.33147e-20 4.45578e-05 3.24509e-19 1.97491e-05)
(-4.38341e-05 9.27526e-05 -2.44414e-20 2.55632e-05 -4.08474e-20 1.82709e-05)
(-2.53334e-05 8.84584e-05 -3.27719e-19 9.38278e-06 -5.76331e-20 1.59506e-05)
(-9.92366e-06 7.48753e-05 3.15844e-19 -2.01997e-06 1.83714e-19 1.19436e-05)
(-2.50716e-06 5.41404e-05 7.91732e-21 -4.11498e-06 -1.01671e-20 6.62214e-06)
(-4.34507e-06 4.84054e-05 1.52832e-19 1.02735e-06 4.24506e-20 3.31772e-06)
(-1.05624e-05 6.50578e-05 1.16319e-19 8.5245e-06 3.7671e-20 2.03785e-06)
(-1.40708e-05 8.25156e-05 -9.23065e-21 1.28743e-05 -8.25006e-22 1.19652e-06)
(-0.000219837 0.00167433 1.80598e-20 0.000212908 -6.15442e-20 6.92907e-06)
(-9.77882e-05 0.00794765 2.00326e-18 0.00015541 -3.29341e-19 -5.76217e-05)
(0.00100141 -0.0018725 -2.55342e-19 -0.000953722 -4.3612e-19 -4.76847e-05)
(0.0544304 -0.274209 -1.57348e-16 -0.0528973 -2.11729e-17 -0.00153306)
(0.274399 -2.29808 5.21164e-17 -0.268753 1.51677e-18 -0.0056453)
(0.334655 -6.04763 -1.9486e-16 -0.336262 3.05095e-16 0.00160676)
(0.0204006 -8.06053 -4.18058e-15 -0.0447989 -4.30441e-15 0.0243983)
(-0.0978586 -7.51605 -6.95057e-16 0.0900878 -2.46181e-15 0.00777083)
(-0.198943 -7.03058 -1.25438e-14 0.237697 6.35258e-17 -0.0387547)
(-1.20009 -7.69145 2.42928e-15 1.24491 8.98739e-15 -0.0448285)
(-2.34257 -7.41108 -4.73251e-18 2.34053 7.98785e-19 0.00203858)
(-2.70629 -6.24566 5.20994e-16 2.69293 1.73836e-14 0.0133598)
(-2.09787 -4.71423 4.69118e-16 2.15078 2.74161e-15 -0.05291)
(-2.10828 -3.69488 -7.50106e-15 2.04212 2.05392e-15 0.0661679)
(0.000242085 -8.04517e-05 1.47674e-20 -0.0002431 -3.65188e-21 1.01514e-06)
(0.000251287 -3.68269e-05 -4.45685e-20 -0.000251827 -4.4252e-20 5.39415e-07)
(0.000249954 1.44329e-05 -4.87096e-20 -0.000250778 6.37878e-20 8.23584e-07)
(0.000234713 6.64342e-05 1.32373e-19 -0.000234412 -8.2789e-22 -3.01452e-07)
(0.000205521 0.000114336 -2.79164e-20 -0.000205042 -1.62217e-19 -4.79322e-07)
(0.000164448 0.000153098 -9.62347e-20 -0.00016427 1.22015e-19 -1.78205e-07)
(0.000114069 0.000178906 1.75565e-19 -0.000114235 9.81132e-20 1.6544e-07)
(6.07652e-05 0.000187685 -9.47573e-20 -6.09518e-05 -9.38074e-20 1.86678e-07)
(1.19796e-05 0.000180301 -1.33694e-19 -1.21679e-05 -3.1041e-20 1.88284e-07)
(-2.77578e-05 0.000160778 -1.03143e-19 2.74314e-05 4.49798e-20 3.26473e-07)
(-5.57774e-05 0.000134048 1.4324e-19 5.52415e-05 -2.13257e-20 5.35853e-07)
(-7.20707e-05 0.000105169 -1.09376e-19 7.12367e-05 -1.818e-20 8.33992e-07)
(-7.86031e-05 7.78671e-05 -9.10359e-20 7.73436e-05 5.47829e-20 1.25954e-06)
(-7.80065e-05 5.43053e-05 8.5247e-20 7.62179e-05 1.39341e-20 1.78858e-06)
(-7.29217e-05 3.55018e-05 -1.58252e-19 7.05624e-05 3.86798e-20 2.35939e-06)
(-6.56559e-05 2.12443e-05 -4.00667e-21 6.26952e-05 -5.67562e-20 2.96075e-06)
(-5.78125e-05 1.08551e-05 2.01498e-20 5.42646e-05 2.54374e-20 3.54798e-06)
(-5.03642e-05 3.43275e-06 -1.52997e-19 4.63001e-05 2.00833e-20 4.0641e-06)
(-4.38371e-05 -1.89325e-06 5.74705e-20 3.93757e-05 -6.3664e-21 4.46134e-06)
(-3.83139e-05 -5.95163e-06 -2.36178e-19 3.35477e-05 3.32947e-20 4.76623e-06)
(-3.36462e-05 -9.34296e-06 -1.16411e-20 2.86621e-05 3.55192e-21 4.98409e-06)
(-2.94468e-05 -1.25104e-05 1.86708e-19 2.42783e-05 -1.32937e-20 5.1685e-06)
(-2.51873e-05 -1.56335e-05 1.65315e-19 1.98612e-05 -2.39267e-20 5.32609e-06)
(-2.01597e-05 -1.83977e-05 -1.51096e-19 1.4611e-05 1.32561e-20 5.54878e-06)
(-1.44358e-05 -1.9856e-05 -1.31687e-21 8.65096e-06 -8.2594e-24 5.78486e-06)
(-9.03894e-06 -1.9746e-05 -1.40907e-19 3.12924e-06 -5.5296e-21 5.9097e-06)
(-4.47436e-06 -1.87873e-05 9.03807e-22 -1.62459e-06 5.41288e-23 6.09894e-06)
(-6.96167e-07 -1.74563e-05 5.2206e-23 -5.65255e-06 2.7321e-21 6.34872e-06)
(2.3911e-06 -1.60872e-05 8.9001e-22 -8.9638e-06 -1.30635e-22 6.5727e-06)
(4.66359e-06 -1.43994e-05 4.97129e-20 -1.1098e-05 6.01501e-21 6.43439e-06)
(5.96852e-06 -1.29357e-05 -2.20923e-22 -1.1825e-05 -1.30059e-20 5.85652e-06)
(4.26082e-06 -7.62907e-06 -3.24966e-21 -7.48361e-06 -4.91738e-22 3.22279e-06)
(3.72623e-05 -5.94311e-05 -1.66832e-18 -5.90346e-05 -3.29442e-19 2.17723e-05)
(4.17345e-06 -6.01693e-06 -1.68684e-19 -5.96333e-06 -1.05181e-20 1.78987e-06)
(4.42447e-06 -5.62875e-06 -5.5917e-23 -5.72566e-06 3.61278e-22 1.30119e-06)
(1.02335e-05 -9.99688e-06 -6.59212e-19 -1.1925e-05 -2.13716e-19 1.69152e-06)
(0.000346088 -0.000186322 -9.35846e-19 -0.000373905 7.32661e-18 2.78174e-05)
(0.00126834 0.000230908 1.11145e-18 -0.00130467 1.89913e-19 3.63253e-05)
(0.0051935 0.0186773 -5.54102e-16 -0.00610495 1.44503e-17 0.000911451)
(0.000180202 -9.93841e-05 1.68216e-20 -0.000179991 1.18999e-20 -2.1158e-07)
(0.000160789 -0.000128604 -1.12282e-20 -0.000160649 -7.04972e-21 -1.3984e-07)
(0.000133343 -0.000156208 -1.35778e-21 -0.000132962 -1.9986e-21 -3.81529e-07)
(9.99119e-05 -0.000177794 4.18311e-21 -9.92903e-05 -8.06784e-21 -6.21557e-07)
(6.27949e-05 -0.000191412 1.33024e-19 -6.20104e-05 1.25879e-19 -7.84546e-07)
(2.27997e-05 -0.000196429 -8.88546e-20 -2.16493e-05 -8.19713e-20 -1.15038e-06)
(-1.66808e-05 -0.000192124 -1.88033e-21 1.82062e-05 1.63805e-21 -1.52536e-06)
(-5.28494e-05 -0.000179045 2.89936e-19 5.48349e-05 2.44577e-19 -1.98554e-06)
(-8.38472e-05 -0.00015849 -3.57929e-20 8.64556e-05 9.74623e-21 -2.60842e-06)
(-0.000107827 -0.000132607 -3.1683e-19 0.000111094 -2.08256e-19 -3.26709e-06)
(-0.000124019 -0.000103605 9.74487e-20 0.000128053 7.43318e-20 -4.03382e-06)