/*--------------------------------*- C++ -*----------------------------------*\
| =========                 |                                                 |
| \\      /  F ield         | OpenFOAM: The Open Source CFD Toolbox           |
|  \\    /   O peration     | Version:  2312                                  |
|   \\  /    A nd           | Website:  www.openfoam.com                      |
|    \\/     M anipulation  |                                                 |
\*---------------------------------------------------------------------------*/
FoamFile
{
    version     2.0;
    format      ascii;
    arch        "LSB;label=32;scalar=64";
    class       volSymmTensorField;
    location    "50";
    object      turbulenceProperties:R;
}
// * * * * * * * * * * * * * * * * * * * * * * * * * * * * * * * * * * * * * //

dimensions      [0 2 -2 0 0 0 0];

internalField   nonuniform List<symmTensor> 
10720
(
(0.00811716 0.0012768 -5.24499e-21 0.00657521 -2.37165e-20 0.00739864)
(0.00976719 0.00155488 5.1533e-21 0.00764464 1.73471e-20 0.00874242)
(0.0120313 0.00184831 1.51086e-21 0.0088708 7.6234e-21 0.010543)
(0.0151322 0.00224059 6.63549e-20 0.0104957 2.52413e-19 0.0129395)
(0.0190402 0.00264273 -1.439e-19 0.0122992 -4.43243e-19 0.0158186)
(0.0242394 0.00296811 -1.76915e-19 0.014382 -3.40306e-19 0.0195504)
(0.0311213 0.00319529 3.36787e-20 0.0168948 -3.54776e-21 0.0243297)
(0.0399361 0.00311635 2.13723e-20 0.0198317 3.37935e-20 0.0302986)
(0.051289 0.00246735 6.5068e-20 0.023432 -5.25596e-20 0.0379316)
(0.065739 0.00101688 -1.47356e-20 0.028092 -1.47841e-20 0.0476455)
(0.083936 -0.00163635 1.78931e-18 0.0343387 8.67562e-19 0.0600702)
(0.107279 -0.00592812 -3.86732e-19 0.0431443 -2.96809e-19 0.076397)
(0.137709 -0.0124949 8.05042e-19 0.0558505 -1.20767e-18 0.0982811)
(0.178909 -0.0223899 3.8245e-19 0.0747048 8.59404e-19 0.128711)
(0.235267 -0.0371848 6.74689e-19 0.102691 -1.19616e-18 0.171409)
(0.314999 -0.059682 9.80096e-20 0.145216 4.23573e-18 0.233246)
(0.430734 -0.094621 2.32028e-17 0.211217 1.12813e-17 0.325248)
(0.607565 -0.150789 -3.49456e-18 0.318055 7.34982e-18 0.468766)
(0.883583 -0.243168 -2.8666e-18 0.494829 -3.50774e-17 0.697933)
(1.33897 -0.401653 1.59611e-18 0.801279 -2.0464e-19 1.08314)
(2.12451 -0.684823 -5.18781e-17 1.35465 -3.98834e-17 1.75989)
(3.66474 -1.25263 1.07759e-16 2.47677 2.07492e-16 3.10319)
(6.12332 -2.20728 -8.2095e-17 4.38686 -3.033e-16 5.30618)
(14.2791 -5.44512 1.99433e-16 10.9522 5.93262e-17 12.7339)
(14.1769 -5.74138 -2.57732e-16 11.8118 -1.21044e-17 13.0966)
(9.87314 -4.22177 1.77137e-17 8.96873 -1.28172e-15 9.46584)
(7.27709 -3.23312 2.7874e-16 7.09284 -5.22364e-17 7.19301)
(5.21029 -2.37311 2.09893e-16 5.34244 4.48026e-16 5.27417)
(4.00646 -1.86023 6.20031e-16 4.2808 8.67368e-16 4.14798)
(3.32135 -1.56154 1.01343e-16 3.6533 4.10458e-15 3.49434)
(2.42617 -1.15165 -9.8311e-16 2.7278 -1.54495e-15 2.58974)
(1.75168 -0.849728 -5.26022e-16 2.08503 -2.63622e-15 1.93752)
(2.13188 -1.0472 -1.13497e-15 2.68253 -3.5946e-15 2.4042)
(1.13796 -0.546628 -7.35726e-16 1.354 -6.48084e-15 1.22526)
(0.696188 0.165055 1.04829e-15 0.353093 2.66066e-15 0.541976)
(1.90979 0.652663 7.04198e-17 1.28654 1.81273e-15 1.62995)
(1.9508 0.692395 -1.63245e-16 1.37411 2.24866e-17 1.67615)
(1.57896 0.549283 -2.05076e-16 1.09907 -2.18657e-15 1.32001)
(2.80667 1.07429 3.66774e-16 2.14899 9.42117e-16 2.5495)
(0.00669255 0.00105333 1.49382e-21 0.0056471 -2.92291e-21 0.00618465)
(0.00558798 0.000848376 -9.62125e-21 0.00481678 1.17197e-20 0.00523113)
(0.00444461 0.000645147 -3.02874e-20 0.00391487 -2.90484e-20 0.0041906)
(0.00348275 0.000471831 5.95541e-20 0.00310375 -7.26047e-20 0.00329043)
(0.00270743 0.000328983 -8.98934e-20 0.00240254 5.03657e-20 0.00253372)
(0.00231224 0.000240925 -9.82203e-20 0.00200193 1.54737e-19 0.00213126)
(0.00268532 0.000260313 1.34563e-19 0.00219879 2.42937e-20 0.00242367)
(0.00359678 0.000334105 5.62278e-20 0.00278042 -2.26633e-19 0.00318406)
(0.00511078 0.000493891 6.84207e-20 0.00374272 1.30232e-20 0.00443241)
(0.00739548 0.000823834 -6.98346e-20 0.00514498 -2.41503e-20 0.00629016)
(0.0107108 0.00145662 7.64273e-20 0.00708864 1.78438e-19 0.00894308)
(0.0153934 0.00258008 2.3815e-19 0.00972866 -1.27082e-19 0.0126357)
(0.0218372 0.0044352 -4.00141e-19 0.0133346 6.70558e-20 0.0177064)
(0.030543 0.00727746 3.15186e-19 0.0183567 -7.03268e-20 0.0246304)
(0.0422332 0.0113496 1.49622e-18 0.0254748 -1.38782e-19 0.034093)
(0.0582774 0.0171151 1.45208e-18 0.0358787 -3.71016e-19 0.0473995)
(0.0811963 0.0254145 4.56042e-19 0.0514726 3.39654e-19 0.0667467)
(0.115348 0.0378734 -4.52431e-20 0.0755723 4.63909e-19 0.0960049)
(0.169002 0.0576081 1.96546e-19 0.114419 -1.08838e-19 0.142442)
(0.255723 0.0900176 2.75829e-19 0.178869 3.44871e-20 0.218357)
(0.403135 0.146066 -4.50485e-19 0.291171 -2.66241e-18 0.348761)
(0.662846 0.246986 -2.38757e-18 0.494907 2.34282e-19 0.581532)
(1.16546 0.446749 2.49859e-18 0.901714 2.87416e-19 1.03839)
(2.05877 0.813637 2.89825e-19 1.65892 1.31037e-18 1.86826)
(4.0883 1.66637 1.33972e-16 3.44255 -6.79145e-18 3.78573)
(8.13016 3.40885 3.43478e-18 7.14933 1.36393e-17 7.68187)
(17.8265 7.66909 -7.65631e-19 16.3525 -2.82188e-17 17.1881)
(30.1173 13.2635 -7.38078e-18 28.7981 2.26753e-19 29.6245)
(37.018 16.6518 8.48385e-18 36.8708 1.14893e-19 37.1309)
(38.9 17.8282 4.37351e-16 40.2879 -6.24516e-17 39.7619)
(38.7917 18.068 -3.82997e-17 41.6741 -1.8784e-18 40.3737)
(38.1166 18.0014 -9.07085e-17 42.3713 2.83616e-16 40.3586)
(37.1615 17.7597 -2.74926e-15 42.6472 -5.14281e-16 39.9948)
(35.9886 17.3737 -4.7302e-15 42.5459 1.11353e-15 39.3355)
(34.6194 16.8572 4.34417e-15 42.0811 3.13139e-16 38.4008)
(33.1073 16.2405 -1.74107e-17 41.3163 -3.76073e-16 37.251)
(31.2121 15.4111 -6.36732e-17 39.9622 3.22363e-16 35.6264)
(28.9754 14.3861 -1.16443e-16 38.0383 3.38275e-17 33.539)
(23.7975 11.8963 -4.14881e-15 32.2127 -1.31275e-16 28.116)
(0.00194658 -0.000108747 -9.62894e-22 0.00157759 -2.58342e-21 0.00174632)
(0.00192244 -0.00013987 -1.90863e-23 0.001604 3.68207e-21 0.00174376)
(0.00187169 -0.00016741 1.32232e-21 0.00162634 3.74041e-22 0.00172424)
(0.00179277 -0.000181559 1.51034e-21 0.00162476 -7.436e-23 0.00167912)
(0.00169069 -0.000184123 7.93687e-21 0.00160006 2.03332e-20 0.00161181)
(0.00157505 -0.000177136 1.78102e-20 0.00155865 3.47483e-20 0.00152939)
(0.00144886 -0.000161707 -4.29339e-21 0.00149173 8.43012e-22 0.00142947)
(0.00131634 -0.000141099 -4.72109e-21 0.00140163 -1.89952e-21 0.00131589)
(0.00118801 -0.000119018 -4.55068e-20 0.0013007 -4.82229e-20 0.00119959)
(0.00106503 -9.78318e-05 -1.16825e-20 0.00119001 -5.09507e-21 0.00108179)
(0.000951015 -7.91034e-05 -1.30141e-19 0.00107749 -1.21504e-19 0.00096822)
(0.000851803 -6.39509e-05 -1.60077e-21 0.00097306 1.57761e-20 0.000866347)
(0.000769208 -5.28688e-05 -5.96046e-20 0.000881663 -2.45444e-21 0.000778942)
(0.000695613 -4.46999e-05 3.89616e-20 0.00079501 2.3083e-20 0.00069984)
(0.000702195 -5.02604e-05 -9.26622e-20 0.000805221 -2.91024e-20 0.00070012)
(0.000841641 -8.33898e-05 3.1968e-19 0.000976744 8.18576e-20 0.000823926)
(0.00136347 -0.000237768 -7.5603e-19 0.00159827 -5.97991e-19 0.00127114)
(0.00295417 -0.000860421 -2.05291e-18 0.00325675 -7.12353e-19 0.00251504)
(0.00744778 -0.00264038 -5.08443e-18 0.00704927 1.75348e-18 0.00596565)
(0.0215611 -0.00784156 1.07122e-18 0.0178116 -1.25836e-20 0.0171883)
(0.063981 -0.0230593 1.21062e-17 0.0487625 1.34187e-17 0.0519263)
(0.249338 -0.0895097 -3.01327e-17 0.183227 -6.26679e-17 0.206745)
(0.677244 -0.246102 7.23043e-19 0.497259 8.97637e-17 0.5745)
(3.21058 -1.2 2.94322e-18 2.42086 -4.95377e-17 2.79199)
(8.2401 -3.19222 -0 6.4793 -0 7.35663)
(13.889 -5.60029 -4.75571e-17 11.5235 1.23891e-15 12.7473)
(18.0324 -7.5904 -5.24358e-17 15.975 6.59869e-17 17.0592)
(18.3491 -8.0442 -1.72979e-16 17.4381 -1.16005e-15 17.9273)
(15.9312 -7.20635 -5.76163e-16 16.094 -5.23271e-15 16.0203)
(12.9042 -5.95224 -3.08595e-16 13.6125 -1.69994e-14 13.2353)
(10.4437 -4.89976 3.90067e-16 11.4743 9.63249e-15 10.9278)
(8.18562 -3.92781 5.51883e-16 9.49398 1.47433e-14 8.86715)
(5.42531 -2.6107 8.29101e-16 6.32003 1.05747e-14 5.91526)
(2.96382 -1.33661 5.74108e-15 3.0057 3.46866e-14 2.94605)
(3.63503 -1.69929 -1.54192e-15 4.04571 -1.06592e-14 3.74716)
(4.98294 -2.47045 -9.93638e-16 6.56478 -4.29281e-15 5.74635)
(5.78981 -2.91139 -4.30177e-16 8.23541 1.18718e-16 7.02671)
(7.07453 -3.54996 2.10383e-15 9.97121 1.50677e-14 8.5146)
(6.23727 -3.1425 -1.90515e-15 10.1493 -4.37117e-15 8.30069)
(0.00194322 -6.91162e-05 1.80884e-21 0.00153912 1.96434e-21 0.00172989)
(0.00191888 -2.73641e-05 1.7388e-21 0.00149903 -3.94244e-20 0.00170116)
(0.00186231 2.26706e-05 -2.63033e-20 0.00145069 2.29873e-21 0.00165427)
(0.00175684 7.36136e-05 1.3864e-20 0.00138821 6.48946e-20 0.00157426)
(0.00161614 0.000114117 8.72571e-20 0.00132015 -6.29356e-20 0.00147266)
(0.00147273 0.000139257 -5.51939e-20 0.00125976 -5.35205e-20 0.001373)
(0.00131109 0.000148426 -2.76065e-20 0.00119345 -4.4146e-20 0.00125848)
(0.00113146 0.000140933 -9.14768e-20 0.00111125 3.89869e-20 0.0011237)
(0.000961858 0.000119473 -7.89392e-21 0.00101758 4.78397e-20 0.000986952)
(0.000815033 9.22378e-05 -2.69176e-20 0.00091548 7.45731e-21 0.000858064)
(0.000689255 6.63399e-05 1.41014e-20 0.000806431 -3.96741e-20 0.000737501)
(0.000581513 4.5529e-05 -5.07881e-21 0.000696727 -1.028e-20 0.000626883)
(0.000488769 3.04396e-05 9.49515e-21 0.000592148 2.47972e-20 0.000527389)
(0.000409122 2.04943e-05 -1.5267e-20 0.000496625 -2.55316e-21 0.00043982)
(0.000341724 1.44214e-05 -4.46815e-21 0.00041299 -1.41278e-20 0.000365003)
(0.000285859 1.07886e-05 -3.10938e-20 0.000342633 1.36329e-21 0.000303028)
(0.000239037 8.57124e-06 -2.08822e-21 0.000283156 6.80971e-22 0.00025132)
(0.000199949 7.09319e-06 -5.0416e-23 0.0002334 -7.92424e-22 0.000208502)
(0.000165311 5.76609e-06 -2.78049e-21 0.000189476 1.04187e-21 0.000171002)
(0.000132761 4.33401e-06 2.44916e-21 0.000148831 -6.77821e-22 0.00013626)
(9.89573e-05 2.69745e-06 -1.58548e-20 0.00010794 5.13565e-21 0.000100763)
(6.21979e-05 1.13388e-06 -1.0146e-21 6.56867e-05 1.46421e-22 6.28376e-05)
(3.3814e-05 3.4014e-07 1.11645e-22 3.48133e-05 -4.23268e-23 3.39741e-05)
(1.73058e-05 8.83055e-08 4.42023e-22 1.75529e-05 -5.32782e-23 1.73368e-05)
(0.000417943 5.64478e-05 -2.474e-19 0.000557911 2.35127e-20 0.000429387)
(0.00244779 0.00076436 -2.54367e-18 0.00406558 -1.25622e-19 0.00251768)
(0.0167531 0.00562336 2.10537e-19 0.0270767 8.80878e-19 0.0169348)
(0.0862832 0.0311142 3.12308e-20 0.134618 1.63403e-18 0.0864939)
(0.221253 0.0873225 -7.80801e-20 0.329025 -1.06097e-21 0.221529)
(0.384014 0.164238 3.30553e-18 0.539401 4.25014e-17 0.386784)
(0.541317 0.244248 2.35931e-18 0.721769 -4.96362e-17 0.551991)
(0.669816 0.311302 5.21306e-17 0.862671 -1.42258e-16 0.693545)
(0.767373 0.362605 2.9919e-15 0.973893 1.6416e-16 0.80736)
(0.846315 0.404214 2.76981e-15 1.07324 -1.08125e-15 0.903971)
(0.916195 0.441244 -2.56537e-15 1.17037 1.79378e-16 0.992966)
(0.992408 0.480989 2.40269e-15 1.27676 2.97249e-16 1.0886)
(1.0699 0.521874 -4.32417e-15 1.38879 -6.0779e-16 1.18911)
(1.3041 0.636427 -3.96994e-15 1.67234 -6.46233e-16 1.44837)
(1.7632 0.868452 -3.8667e-15 2.19023 -2.96127e-16 2.01378)
(0.00137127 -7.6246e-05 -3.60736e-22 0.00109077 7.41578e-22 0.00123712)
(0.00132945 -0.000100363 -1.37231e-20 0.00108815 -2.27735e-20 0.00121705)
(0.00126413 -0.000120509 9.55412e-21 0.00107829 1.11568e-20 0.0011818)
(0.00117872 -0.000132276 1.22857e-20 0.00105821 1.71268e-20 0.00113218)
(0.00108751 -0.000135422 2.29236e-20 0.00103529 3.28205e-20 0.00107796)
(0.000989097 -0.000129141 -6.74033e-20 0.00100488 -9.62358e-20 0.00101661)
(0.00089079 -0.000113983 4.54641e-20 0.000966766 6.76199e-20 0.000951785)
(0.000802998 -9.26547e-05 5.51514e-20 0.000926428 5.35514e-20 0.000890725)
(0.000728692 -6.71794e-05 -2.54295e-21 0.000885364 5.4372e-21 0.000835851)
(0.00067219 -4.04306e-05 4.12197e-20 0.000846987 5.71111e-20 0.000791047)
(0.000633625 -1.45939e-05 -7.20605e-20 0.000813095 -1.1133e-20 0.00075698)
(0.000611074 8.95571e-06 1.07162e-19 0.000784122 1.07196e-19 0.000733092)
(0.000602298 2.93575e-05 5.10233e-20 0.000760765 2.37159e-20 0.000718581)
(0.000602848 4.63722e-05 2.12478e-20 0.000740839 -1.96811e-20 0.000710123)
(0.000612898 5.97817e-05 7.51813e-20 0.000729179 6.84641e-20 0.000709193)
(0.000644346 7.31292e-05 -1.90332e-19 0.000744999 -1.81851e-19 0.000733289)
(0.000640445 7.49049e-05 3.90197e-20 0.000718666 6.00515e-20 0.00071308)
(0.000632235 7.38e-05 3.3733e-19 0.000694003 1.007e-19 0.000691321)
(0.000278469 1.40937e-05 1.9436e-20 0.000288472 1.34186e-20 0.000288051)
(0.000128137 3.03656e-06 -1.19294e-21 0.000130124 -9.77002e-23 0.000129966)
(0.00362532 0.00168578 7.67747e-19 0.00473714 -1.62038e-18 0.00457628)
(0.00117473 0.000367946 4.05886e-20 0.00143404 3.17066e-19 0.00138269)
(0.000325828 0.000119139 1.15572e-18 0.000408445 -1.58567e-19 0.000428406)
(0.0229577 -0.00854918 -6.86955e-18 0.0171771 -2.73314e-18 0.0200615)
(0.437341 -0.167385 1.77507e-19 0.339688 8.71814e-19 0.385547)
(2.2574 -0.8916 -1.35036e-16 1.82698 2.44449e-17 2.0308)
(6.83223 -2.78677 4.85259e-17 5.78349 3.23703e-17 6.28919)
(14.0345 -5.92027 -8.48458e-17 12.5074 -1.03916e-17 13.2536)
(18.9412 -8.26339 -1.24698e-15 17.8651 1.9379e-15 18.3997)
(18.7556 -8.42129 -7.95676e-16 18.6781 -5.74523e-17 18.7089)
(16.3376 -7.51966 3.46499e-15 17.1429 -1.46908e-15 16.7225)
(13.1167 -6.17667 1.60677e-15 14.4774 2.68359e-15 13.8335)
(9.11468 -4.28334 3.82908e-16 9.9862 7.11094e-15 9.60436)
(6.90896 -3.11768 1.84506e-15 6.97099 -8.96305e-15 6.90677)
(8.72998 -4.14819 -2.55792e-16 10.0134 -2.89963e-15 9.25159)
(9.31376 -4.62556 -2.77626e-15 12.3625 -1.67619e-14 10.7936)
(8.6779 -4.36486 -1.0492e-17 12.5234 -4.64029e-15 10.596)
(7.72454 -3.8706 6.11009e-16 11.1411 -6.246e-15 9.34573)
(7.47435 -3.76232 -8.52323e-16 11.9229 2.37879e-17 9.74175)
(0.00140047 -4.73723e-05 -3.779e-21 0.00109193 -6.34701e-21 0.00125128)
(0.00141181 -1.76369e-05 -1.62781e-21 0.00109023 8.95816e-21 0.00125446)
(0.0014034 1.75865e-05 4.11778e-20 0.00108415 2.96812e-20 0.00124626)
(0.00135392 5.25198e-05 -3.1167e-20 0.00106085 -4.54666e-21 0.0012079)
(0.00127078 8.29951e-05 2.15372e-21 0.0010258 4.94962e-21 0.00114803)
(0.00116711 0.000104635 2.22749e-20 0.000985279 5.09746e-20 0.00107655)
(0.0010577 0.00011685 1.76331e-20 0.0009473 1.27284e-20 0.00100316)
(0.00093104 0.000116055 9.80869e-20 0.000892235 3.28428e-20 0.000912212)
(0.000793934 0.000103462 3.16102e-20 0.000814003 -2.05456e-20 0.000805122)
(0.000658354 8.39623e-05 4.27731e-20 0.000718539 3.97017e-21 0.000690906)
(0.000532938 6.24249e-05 -6.70523e-20 0.000613998 -6.25578e-21 0.00057753)
(0.000424255 4.25905e-05 -3.26452e-20 0.000510855 4.22981e-20 0.000473157)
(0.000334321 2.62237e-05 6.82356e-20 0.000416362 -2.95413e-20 0.000382319)
(0.00026257 1.38376e-05 2.0978e-20 0.000334338 -2.17562e-22 0.000306633)
(0.000209036 5.24345e-06 -4.01621e-20 0.000268854 2.18555e-20 0.000247952)
(0.000170806 -4.85118e-07 -1.82606e-20 0.000219169 2.70408e-20 0.000204589)
(0.000144797 -4.09813e-06 6.40257e-20 0.000183298 -2.54841e-20 0.000173985)
(0.000127732 -6.31356e-06 4.53598e-20 0.000158244 -9.05587e-21 0.000153088)
(0.000117143 -7.69925e-06 1.58506e-20 0.000141645 -2.57211e-21 0.000139475)
(0.000111145 -8.73747e-06 -5.63763e-21 0.000131105 1.04422e-20 0.000131141)
(0.000108403 -9.68782e-06 8.99013e-20 0.000124935 -6.35071e-21 0.000126561)
(0.000108762 -1.08104e-05 1.21131e-21 0.000122325 -5.19436e-21 0.00012537)
(0.000112024 -1.21946e-05 -1.7295e-22 0.000122262 -2.00255e-22 0.000126981)
(0.000118662 -1.36474e-05 -6.86507e-22 0.000123652 5.99233e-22 0.000131452)
(0.00012566 -1.40339e-05 1.40463e-21 0.000123407 -3.64854e-21 0.000135499)
(0.000130665 -1.2884e-05 1.39259e-19 0.000121499 -9.69419e-21 0.000137433)
(0.000125255 -9.59358e-06 -2.98641e-21 0.000112621 1.8908e-22 0.000129076)
(0.000127539 -8.10938e-06 -1.26303e-20 0.000111131 -7.84896e-22 0.000130069)
(0.00168737 -0.000250174 -1.09337e-20 0.000912902 2.28278e-21 0.00175364)
(0.00684119 -0.000478794 -4.9812e-18 0.00341645 -1.47425e-19 0.00701254)
(0.0154816 0.00122728 3.00336e-17 0.00769805 5.00269e-18 0.0157712)
(0.0286058 0.00866038 -4.94669e-18 0.018625 -5.51072e-20 0.0292441)
(0.0580628 0.0248642 -3.8729e-16 0.0520852 9.17873e-17 0.0599798)
(0.109166 0.0505297 9.56164e-19 0.114445 8.36576e-17 0.114042)
(0.177285 0.0839324 1.85201e-17 0.199877 -1.68167e-16 0.18748)
(0.255169 0.121624 -6.43042e-18 0.29546 2.81039e-16 0.271616)
(0.332504 0.15918 -2.81026e-18 0.390221 -4.26421e-16 0.356302)
(0.413041 0.192827 2.68361e-15 0.448337 5.42394e-16 0.429531)
(0.578461 0.274597 5.22843e-15 0.641837 1.53008e-15 0.625245)
(0.00109132 -6.11149e-05 -2.79852e-21 0.000871025 -2.89397e-21 0.000979667)
(0.0010782 -7.97045e-05 -4.08547e-21 0.000883331 -7.99704e-21 0.000978855)
(0.0010537 -9.69033e-05 9.96666e-21 0.000895663 9.39105e-21 0.000971789)
(0.00102111 -0.000109665 5.93754e-21 0.000907097 1.37254e-20 0.000960163)
(0.000979732 -0.000116656 1.19608e-21 0.000913592 5.03019e-22 0.000941574)
(0.0009298 -0.000117645 3.81212e-22 0.000913691 2.77957e-21 0.000915283)
(0.000875622 -0.000112772 9.05323e-20 0.000906679 9.03728e-20 0.000883187)
(0.000818297 -0.000102838 -8.64317e-20 0.000889898 -9.87354e-20 0.000844543)
(0.00076012 -8.92107e-05 1.28645e-20 0.000864137 3.51626e-21 0.000800793)
(0.000702754 -7.36087e-05 1.08401e-19 0.00082934 8.03283e-20 0.000753011)
(0.000646954 -5.74574e-05 9.21582e-20 0.000786618 8.61494e-20 0.000702061)
(0.0005935 -4.19806e-05 9.69154e-20 0.000737862 3.53967e-20 0.000649381)
(0.000543063 -2.80741e-05 -1.05587e-19 0.00068531 -7.73449e-20 0.000596418)
(0.00049488 -1.61826e-05 -7.31763e-20 0.000629686 -6.40944e-20 0.000543215)
(0.000448032 -6.52561e-06 5.85781e-21 0.000571466 -1.98617e-20 0.000489691)
(0.000401966 6.07817e-07 -1.62571e-19 0.000511363 3.47894e-21 0.000435833)
(0.000350463 6.31508e-06 -4.67576e-20 0.000442698 -5.44486e-20 0.000376113)
(0.000300043 1.08575e-05 -2.72636e-19 0.000374438 -1.99794e-19 0.00031783)
(0.000238492 1.28043e-05 2.12216e-20 0.000287287 -3.1043e-20 0.00024807)
(0.000200968 1.42313e-05 9.67521e-21 0.000232526 -1.91869e-20 0.000206141)
(2.49367e-05 2.48835e-07 -1.26779e-21 2.52799e-05 -4.69887e-23 2.5002e-05)
(9.99266e-05 3.52953e-06 2.07615e-21 0.000103647 4.64538e-22 0.000101024)
(0.000111436 3.50834e-06 -7.59562e-21 0.000114663 -1.62725e-21 0.00011268)
(0.00267909 0.00123457 -8.84495e-19 0.00366359 7.28868e-19 0.00308652)
(0.0126666 0.00615018 1.72113e-18 0.0166776 1.40423e-19 0.014011)
(0.0102668 -0.00380671 5.20584e-18 0.00786793 2.77015e-18 0.00863584)
(0.29442 -0.116406 -2.81859e-18 0.239163 6.15815e-19 0.264205)
(2.40523 -0.985822 1.89504e-17 2.05183 1.01433e-18 2.22007)
(8.83096 -3.73765 5.95609e-16 7.914 1.93588e-16 8.35959)
(16.4794 -7.19195 -1.01332e-16 15.5558 1.52559e-15 16.0099)
(19.3981 -8.72246 -1.80864e-15 19.3652 -3.67039e-15 19.3865)
(17.4431 -8.03634 4.20586e-15 18.3005 -6.16165e-15 17.9088)
(13.2624 -6.11242 2.01207e-15 13.9225 -1.10157e-16 13.6245)
(11.2172 -5.0977 -1.16694e-15 11.4696 -1.3296e-14 11.309)
(12.5692 -5.99486 -2.87115e-15 14.4652 -6.77972e-15 13.432)
(12.3022 -6.11284 2.05135e-15 16.2872 1.2428e-14 14.2735)
(10.7773 -5.42305 -4.63041e-15 15.5679 5.99746e-16 13.178)
(8.66082 -4.3438 -2.65409e-15 12.5781 -2.77544e-15 10.5328)
(7.58898 -3.82915 2.33958e-15 11.9534 7.58554e-16 9.8437)
(0.00109314 -3.92866e-05 -9.04405e-22 0.000855569 2.87809e-21 0.000973915)
(0.00108743 -1.70006e-05 2.62964e-21 0.000842008 2.34935e-20 0.000964597)
(0.00106844 9.2129e-06 1.28263e-20 0.00082584 1.55709e-20 0.000947834)
(0.00102984 3.53802e-05 2.74253e-20 0.000805076 -1.51378e-20 0.000917572)
(0.00097646 5.88661e-05 -5.14673e-20 0.000783432 -2.71377e-20 0.000879815)
(0.000911164 7.6932e-05 -1.25721e-20 0.000761093 -3.12148e-20 0.000836204)
(0.000832217 8.77788e-05 -6.0971e-20 0.000733741 -2.3691e-20 0.000783481)
(0.000741197 8.95835e-05 -5.51719e-20 0.000696188 3.81416e-21 0.000719245)
(0.000647339 8.32959e-05 -9.05453e-22 0.000649349 -1.43255e-20 0.000648741)
(0.000558223 7.16489e-05 2.97357e-20 0.000596447 -1.80085e-20 0.000577402)
(0.000478085 5.75431e-05 1.47815e-20 0.000540035 3.31925e-20 0.000508549)
(0.000409076 4.35489e-05 5.46339e-20 0.000483339 -2.25622e-20 0.000444938)
(0.000350839 3.12532e-05 -4.46306e-20 0.000428681 -1.7642e-20 0.000387685)
(0.000302228 2.13874e-05 3.1555e-21 0.000377872 7.49076e-21 0.000337196)
(0.000262489 1.41187e-05 4.84973e-20 0.000332838 -1.34423e-20 0.000294069)
(0.000229889 9.00282e-06 7.7625e-20 0.000293773 -1.19285e-20 0.000257642)
(0.000203435 5.5608e-06 -5.96551e-20 0.000260885 1.86836e-21 0.000227511)
(0.000182047 3.28919e-06 -7.67379e-21 0.00023368 -1.01683e-20 0.000202887)
(0.000165184 1.74261e-06 -2.90181e-21 0.000211936 1.9498e-21 0.000183348)
(0.000151658 5.27476e-07 8.35419e-20 0.000194367 -2.18126e-20 0.000167679)
(0.0001408 -5.84192e-07 8.5608e-21 0.000180152 -7.30443e-21 0.000155086)
(0.000131499 -1.77166e-06 -7.90815e-20 0.000167828 1.45558e-20 0.000144286)
(0.000122704 -3.10661e-06 -1.14518e-21 0.000155893 2.74821e-21 0.000133979)
(0.000112683 -4.4093e-06 -3.21114e-22 0.000142011 -1.42228e-22 0.000122137)
(0.000101933 -5.14743e-06 -4.6273e-22 0.000127019 3.38117e-23 0.000109265)
(9.31856e-05 -5.2312e-06 -5.64246e-20 0.000114793 1.18445e-20 9.85321e-05)
(8.66903e-05 -4.97566e-06 7.23878e-22 0.000105639 -1.49183e-22 9.0422e-05)
(8.29636e-05 -4.80997e-06 1.26578e-20 0.000100493 -1.55637e-21 8.55463e-05)
(7.24881e-05 -3.94885e-06 -6.47042e-22 8.62554e-05 -5.04321e-24 7.38823e-05)
(6.88847e-05 -4.25509e-06 -2.90483e-22 8.25355e-05 -5.73771e-21 6.96803e-05)
(4.24842e-06 -2.1185e-08 -2.39689e-22 4.30695e-06 2.93493e-23 4.24903e-06)
(3.58927e-05 -2.53407e-06 -4.33424e-22 4.15638e-05 -2.54349e-23 3.55134e-05)
(0.000349187 -9.26331e-05 1.30498e-19 0.000508922 -2.19939e-19 0.000305378)
(0.0005753 -2.42753e-05 2.79612e-17 0.00060785 6.50076e-18 0.00036171)
(0.00292703 0.00101299 -1.04795e-18 0.00207914 -1.28322e-19 0.00236904)
(0.012501 0.00478081 -2.50478e-16 0.00957598 -6.41059e-18 0.011298)
(0.0351567 0.014521 1.60393e-15 0.0299596 2.23242e-16 0.0333808)
(0.0915892 0.0365511 3.60075e-18 0.0742682 -5.20347e-17 0.0849121)
(0.238841 0.107628 1.88344e-16 0.236643 -1.0473e-15 0.242895)
(0.000841489 -4.66499e-05 -2.21556e-21 0.000670849 -1.46312e-21 0.000756629)
(0.000827939 -6.06026e-05 -5.43557e-21 0.000677017 -7.85751e-21 0.000753312)
(0.000806583 -7.34525e-05 1.85137e-20 0.00068347 2.35548e-20 0.00074603)
(0.000777207 -8.2916e-05 -7.50107e-20 0.000687679 -7.86739e-20 0.000733804)
(0.000741099 -8.81169e-05 1.84968e-20 0.00068845 1.27362e-20 0.00071663)
(0.000698319 -8.87116e-05 3.85811e-20 0.000684604 3.82232e-20 0.000693798)
(0.000651343 -8.45278e-05 -3.63486e-20 0.000674984 -4.20205e-20 0.000666128)
(0.000601988 -7.60391e-05 -9.32861e-21 0.00065859 -6.72746e-22 0.000633959)
(0.000552133 -6.40901e-05 -1.29119e-19 0.000635488 -1.10678e-19 0.000598202)
(0.000504176 -4.99283e-05 -2.8538e-20 0.000606525 -4.35901e-20 0.000560599)
(0.000459633 -3.47379e-05 2.50584e-21 0.000572909 -8.83743e-21 0.000522414)
(0.000419833 -1.96251e-05 -6.99267e-20 0.000536354 -7.40999e-20 0.000485178)
(0.000385767 -5.50351e-06 3.30771e-20 0.000498796 3.42014e-20 0.000450343)
(0.00035784 7.02882e-06 -1.27095e-19 0.000461858 -6.40395e-20 0.000418914)
(0.000335937 1.75115e-05 2.29411e-20 0.000426714 1.27459e-20 0.000391355)
(0.000320434 2.58084e-05 1.2614e-19 0.000395224 9.64149e-20 0.000368799)
(0.000310936 3.17704e-05 -1.64715e-19 0.000368903 -4.79529e-20 0.000351485)
(0.000301863 3.50674e-05 -2.82012e-20 0.000343739 1.24825e-19 0.000334196)
(0.000287904 3.59116e-05 -9.46314e-21 0.000314773 -1.58151e-20 0.000311949)
(0.000267578 3.46998e-05 -1.28555e-19 0.000281196 -2.26079e-20 0.000283773)
(0.000220765 2.66987e-05 1.12622e-19 0.000223583 6.55078e-20 0.000228562)
(0.000129068 1.02809e-05 1.50345e-21 0.000128762 -1.93066e-21 0.000130801)
(7.93916e-08 3.66385e-12 1.1568e-26 7.9392e-08 3.21313e-27 7.93922e-08)
(3.07464e-10 4.04829e-17 7.2381e-32 3.07464e-10 2.34412e-32 3.07464e-10)
(0 0 -0 0 -0 0)
(0.0034625 0.00159096 1.71605e-20 0.00387369 -5.84794e-20 0.00367797)
(0.0174555 0.00789672 1.99042e-18 0.0177071 -3.2723e-19 0.0174954)
(0.00561727 -0.00184469 -2.51549e-19 0.00369118 -4.29642e-19 0.00458376)
(0.675004 -0.274063 -1.57264e-16 0.567734 -2.11616e-17 0.61907)
(5.41621 -2.29783 5.21106e-17 4.87312 1.5166e-18 5.1362)
(13.7938 -6.04734 -1.9485e-16 13.1229 3.0508e-16 13.4608)
(17.9324 -8.06026 -4.18044e-15 17.8672 -4.30427e-15 17.9364)
(16.6054 -7.51585 -6.95039e-16 16.7933 -2.46175e-15 16.711)
(15.4323 -7.03043 -1.25435e-14 15.8689 6.35244e-17 15.5925)
(16.1069 -7.69131 2.42924e-15 18.5519 8.98723e-15 17.2622)
(14.9287 -7.41096 -4.73244e-18 19.6118 7.98772e-19 17.2733)
(12.4139 -6.24556 5.20985e-16 17.813 1.73833e-14 15.1335)
(9.39386 -4.71413 4.69108e-16 13.6424 2.74155e-15 11.4388)
(7.31134 -3.69478 -7.50085e-15 11.4616 2.05386e-15 9.48573)
(0.000846959 -3.05472e-05 5.60714e-21 0.000662736 -1.38661e-21 0.000755425)
(0.000846375 -1.39784e-05 -1.69169e-20 0.000655408 -1.67967e-20 0.000751198)
(0.000835615 5.47727e-06 -1.84852e-20 0.000645588 2.42074e-20 0.000741071)
(0.000809095 2.52045e-05 5.02212e-20 0.000631114 -3.14094e-22 0.000719933)
(0.000772067 4.33922e-05 -1.05948e-20 0.000616252 -6.15641e-20 0.000693886)
(0.000725916 5.81122e-05 -3.65282e-20 0.000601143 4.63139e-20 0.000663428)
(0.00067018 6.79086e-05 6.66406e-20 0.000583521 3.72415e-20 0.000626944)
(0.000605887 7.12413e-05 -3.59679e-20 0.000559685 -3.56073e-20 0.000582892)
(0.00053834 6.84426e-05 -5.07505e-20 0.000529174 -1.17832e-20 0.000533864)
(0.000471352 6.10402e-05 -3.91589e-20 0.000492305 1.70768e-20 0.000482014)
(0.000407438 5.09017e-05 5.43918e-20 0.000449594 -8.09793e-21 0.000428821)
(0.000348607 3.99443e-05 -4.15423e-20 0.000403036 -6.90496e-21 0.000376297)
(0.00029576 2.95835e-05 -3.45866e-20 0.000355007 2.08132e-20 0.000326101)
(0.000249143 2.06387e-05 3.23981e-20 0.000307756 5.29566e-21 0.000279469)
(0.000209041 1.34978e-05 -6.01677e-20 0.000263594 1.47061e-20 0.000237663)
(0.000175237 8.0808e-06 -1.52404e-21 0.000224059 -2.15886e-20 0.000201337)
(0.00014744 4.13117e-06 7.66851e-21 0.000190094 9.68084e-21 0.000170792)
(0.000125183 1.3072e-06 -5.82616e-20 0.000161993 7.64772e-21 0.00014591)
(0.000108012 -7.21436e-07 2.18995e-20 0.000139721 -2.42596e-21 0.000126417)
(9.51405e-05 -2.2696e-06 -9.00644e-20 0.000122544 1.26967e-20 0.000111569)
(8.58622e-05 -3.56581e-06 -4.44291e-21 0.000109643 1.35562e-21 0.000100606)
(7.93613e-05 -4.77908e-06 7.13242e-20 9.98848e-05 -5.07832e-21 9.25846e-05)
(7.48688e-05 -5.97829e-06 6.32167e-20 9.20955e-05 -9.14963e-21 8.65372e-05)
(7.11445e-05 -7.04361e-06 -5.78477e-20 8.44565e-05 5.07513e-21 8.0987e-05)
(6.71548e-05 -7.61293e-06 -5.04897e-22 7.60064e-05 -3.16671e-24 7.49075e-05)
(6.31167e-05 -7.58241e-06 -5.41079e-20 6.77893e-05 -2.12336e-21 6.8857e-05)
(6.0345e-05 -7.23321e-06 3.4797e-22 6.14421e-05 2.08399e-23 6.44157e-05)
(5.91103e-05 -6.71854e-06 2.00929e-23 5.72027e-05 1.05152e-21 6.18217e-05)
(5.94523e-05 -6.25789e-06 3.46213e-22 5.50353e-05 -5.08169e-23 6.1079e-05)
(5.80594e-05 -5.48091e-06 1.89224e-20 5.206e-05 2.28951e-21 5.87334e-05)
(5.52156e-05 -4.84572e-06 -8.2758e-23 4.85501e-05 -4.87202e-21 5.51737e-05)
(1.20039e-05 -2.71332e-07 -1.15576e-22 1.15862e-05 -1.74889e-23 1.1967e-05)
(0.000230187 -5.2762e-05 -1.48111e-18 0.000144697 -2.92473e-19 0.000216435)
(4.85641e-06 -5.80281e-08 -1.62681e-21 4.75865e-06 -1.01438e-22 4.83342e-06)
(1.36454e-05 -4.98389e-07 -4.95108e-24 1.27467e-05 3.19888e-23 1.33689e-05)
(5.25883e-05 -5.93264e-06 -3.91209e-19 3.94383e-05 -1.2683e-19 4.75191e-05)
(0.00123663 -0.000184026 -9.24315e-19 0.000525508 7.23634e-18 0.000922281)
(0.00415556 0.000229804 1.10613e-18 0.00159485 1.89005e-19 0.00292943)
(0.0486276 0.0186641 -5.53711e-16 0.0373371 1.44401e-17 0.0443486)
(0.000676029 -3.77267e-05 6.38555e-21 0.000539298 4.51726e-21 0.000607543)
(0.000669066 -4.8817e-05 -4.26211e-21 0.000547051 -2.67601e-21 0.000607979)
(0.000656932 -5.92952e-05 -5.15401e-22 0.000555845 -7.58649e-22 0.000606171)
(0.000639912 -6.74872e-05 1.58782e-21 0.000564299 -3.06239e-21 0.000601752)
(0.000618542 -7.26534e-05 5.04911e-20 0.00057117 4.77791e-20 0.000594409)
(0.00059261 -7.45601e-05 -3.37272e-20 0.000575738 -3.11145e-20 0.000583519)
(0.000563571 -7.29343e-05 -7.13815e-22 0.000576815 6.21842e-22 0.000569324)
(0.000532319 -6.79823e-05 1.10087e-19 0.000573206 9.28647e-20 0.000551631)
(0.000499806 -6.01947e-05 -1.35942e-20 0.000564487 3.70163e-21 0.000530661)
(0.000467267 -5.03824e-05 -1.20376e-19 0.000550443 -7.91243e-20 0.000506993)
(0.000435284 -3.93807e-05 3.70405e-20 0.000531097 2.82537e-20 0.000480891)
(0.000404396 -2.80116e-05 -9.40259e-20 0.000507016 -3.48373e-20 0.000452911)
(0.000374973 -1.70505e-05 -3.72502e-20 0.000478988 -1.54715e-20 0.000423655)
(0.000346986 -7.06595e-06 -5.76829e-20 0.000447743 2.45205e-20 0.000393447)
(0.000320296 1.51243e-06 4.40545e-21 0.000414085 2.42945e-21 0.000362622)
(0.000294991 8.39155e-06 4.53296e-20 0.000379231 1.05187e-20 0.000331834)
(0.000269815 1.34274e-05 6.56922e-20 0.000342712 8.57892e-20 0.000300247)
(0.0002419 1.6865e-05 2.4222e-19 0.000301652 6.8232e-20 0.000265484)
(0.000212718 1.8863e-05 -9.35851e-20 0.000258536 -6.4182e-21 0.000229572)
(0.000183637 1.93806e-05 8.6513e-20 0.000215622 3.71093e-20 0.000194325)
(0.000160231 1.95756e-05 1.33398e-20 0.000180625 -3.4565e-20 0.000166041)
(0.00013215 1.6799e-05 -1.13321e-20 0.000141064 2.08586e-20 0.000133738)
(0.000113326 1.39164e-05 -6.9377e-20 0.000114605 -3.68795e-20 0.000112485)
(8.47925e-06 7.36872e-08 6.88217e-24 8.46882e-06 -1.03684e-23 8.47143e-06)
(5.89474e-07 2.59436e-10 5.1444e-26 5.89444e-07 -8.76024e-27 5.89459e-07)
(0 0 0 0 -0 0)
(0 0 -0 0 -0 0)
(0.00209155 0.000873187 -2.07838e-19 0.00210274 -1.67513e-20 0.00209126)
(0.0329219 0.0129236 3.6943e-17 0.0264829 1.23539e-17 0.0294077)
(0.25302 -0.0985199 -1.05657e-17 0.200762 -5.22489e-17 0.225765)
(3.8623 -1.64023 -1.21694e-15 3.47818 2.93528e-16 3.66908)