/*--------------------------------*- C++ -*----------------------------------*\
| =========                 |                                                 |
| \\      /  F ield         | OpenFOAM: The Open Source CFD Toolbox           |
|  \\    /   O peration     | Version:  2312                                  |
|   \\  /    A nd           | Website:  www.openfoam.com                      |
|    \\/     M anipulation  |                                                 |
\*---------------------------------------------------------------------------*/
FoamFile
{
    version     2.0;
    format      ascii;
    arch        "LSB;label=32;scalar=64";
    class       volScalarField;
    location    "50";
    object      turbulenceProperties:epsilon;
}
// * * * * * * * * * * * * * * * * * * * * * * * * * * * * * * * * * * * * * //

dimensions      [0 2 -3 0 0 0 0];

internalField   nonuniform List<scalar> 
10720
(
0.0862881
0.118338
0.166056
0.240301
0.341592
0.48709
0.693235
0.970015
1.34035
1.826
2.45149
3.26954
4.35708
5.84868
7.91256
10.8579
15.1483
21.6635
31.6741
47.5819
73.138
117.654
172.809
332.588
263.803
147.365
88.1235
52.1032
34.7259
25.3711
15.0436
9.24214
12.7551
5.02713
0.885143
6.75095
6.9633
4.61749
15.3851
0.0617741
0.0446798
0.0291807
0.0182808
0.0110417
0.00788594
0.0100675
0.0169579
0.0317737
0.0606717
0.11302
0.200742
0.33741
0.537938
0.821509
1.22515
1.81638
2.71842
4.1684
6.57741
10.7866
18.4358
33.6914
61.8704
127.453
261.695
590.112
1021.99
1284.33
1375.99
1394.42
1387.66
1365.36
1329.73
1281.26
1222.67
1141.29
1038.22
794.259
0.00529081
0.00529101
0.00519581
0.00494929
0.0045798
0.00414344
0.00363902
0.00310048
0.00259182
0.00212118
0.00171064
0.00137952
0.00112462
0.000913896
0.000928225
0.00130705
0.00296479
0.00864803
0.0267309
0.100253
0.41286
2.27727
8.52259
50.3508
141.011
229.82
261.895
217.809
147.437
92.2825
60.6341
40.0864
19.3538
6.33255
9.21128
17.7563
24.7987
36.6465
38.2716
0.00517377
0.00498948
0.00469707
0.00423872
0.00369855
0.00320605
0.0026941
0.00215693
0.00167546
0.00127631
0.000950167
0.000691601
0.000492869
0.000344897
0.000238687
0.000165006
0.000113532
7.78691e-05
5.18523e-05
3.22379e-05
1.68812e-05
5.98449e-06
1.5175e-06
3.33655e-07
0.000333615
0.00357142
0.0257027
0.132092
0.320032
0.518543
0.706736
0.884842
1.06145
1.24697
1.44474
1.67824
1.94135
2.72607
4.80233
0.00260175
0.00251166
0.00236124
0.00215787
0.00194748
0.00172281
0.00150006
0.00130471
0.00114054
0.00101406
0.000922564
0.000860346
0.000822874
0.00080078
0.000798655
0.000854143
0.000815843
0.000774701
0.000129415
2.28933e-05
0.0124019
0.0022794
0.000154089
0.0536765
2.48391
19.8511
74.4454
159.073
191.242
151.615
103.837
65.8018
31.5449
16.4606
25.5731
31.707
31.8043
28.8651
37.0573
0.00266488
0.00268334
0.00265114
0.00249578
0.00225649
0.00198282
0.00172088
0.00142298
0.00110723
0.000812997
0.000565393
0.000377028
0.000244018
0.00015517
0.000100125
6.71729e-05
4.7893e-05
3.66183e-05
3.0122e-05
2.64694e-05
2.45821e-05
2.4102e-05
2.47415e-05
2.64593e-05
2.80022e-05
2.87744e-05
2.56325e-05
2.5863e-05
0.000738917
0.00225943
0.00361675
0.00628621
0.017813
0.0470948
0.0987725
0.169741
0.251941
0.318734
0.571058
0.00164625
0.00164443
0.00162299
0.00158678
0.00152857
0.00144758
0.00135134
0.00123942
0.00111851
0.00099312
0.000867417
0.000746123
0.000633218
0.000528894
0.000433044
0.000346019
0.000259871
0.000187127
0.000114074
7.79348e-05
7.31359e-07
1.55007e-05
1.85906e-05
0.0064092
0.016012
0.00851743
1.00548
14.9329
71.4214
135.557
137.878
97.735
51.8933
31.9949
38.1407
40.0891
36.5565
28.2944
31.263
0.00162464
0.00159301
0.00153637
0.00144099
0.0013253
0.00119678
0.00104985
0.000884615
0.000719842
0.000570613
0.000443304
0.000340177
0.000259124
0.000196837
0.000150453
0.000116104
9.10346e-05
7.27846e-05
5.97445e-05
5.01899e-05
4.30992e-05
3.74272e-05
3.23728e-05
2.7006e-05
2.17545e-05
1.78656e-05
1.52042e-05
1.37513e-05
1.0303e-05
9.26933e-06
2.03506e-08
2.42421e-06
3.67253e-05
1.67011e-05
0.000146722
0.00143464
0.00703787
0.0284325
0.139351
0.000979147
0.000969934
0.000950969
0.00091943
0.000876038
0.000820253
0.000755034
0.000682642
0.000606541
0.000531235
0.000459839
0.000395102
0.000338884
0.000291747
0.00025324
0.000223624
0.000202232
0.000182512
0.000159004
0.000131683
8.62404e-05
2.81961e-05
1.81214e-12
6.28918e-18
0
0.00684191
0.0201181
0.00326965
2.08255
29.7895
89.56
105.801
74.1505
52.2481
52.211
48.5523
40.1561
28.0851
25.5481
0.000975842
0.000965421
0.000939289
0.000887507
0.000824613
0.000753563
0.00067269
0.000581453
0.00048774
0.000397501
0.00031447
0.000241972
0.000181494
0.000133039
9.59538e-05
6.86109e-05
4.91418e-05
3.56704e-05
2.66221e-05
2.06158e-05
1.66739e-05
1.40512e-05
1.22198e-05
1.06432e-05
9.04174e-06
7.58706e-06
6.59141e-06
6.03264e-06
5.85777e-06
5.42227e-06
4.80646e-06
2.02194e-07
3.7409e-05
2.87394e-08
2.77594e-07
3.49244e-06
0.00010106
0.000407302
0.013502
0.000631992
0.000632843
0.000629276
0.000620325
0.000605411
0.000583719
0.000555961
0.000522305
0.000483827
0.000442139
0.000398367
0.000354007
0.000310434
0.000268485
0.000228856
0.000192475
0.000158429
0.000124458
9.33824e-05
6.69869e-05
4.8789e-05
3.14848e-05
2.20673e-05
7.61321e-08
1.75316e-10
0
0
0.00309901
0.01924
0.352048
14.6802
58.0164
76.9464
70.7819
66.2715
56.3548
42.7675
27.6589
21.3369
0.000624539
0.000614185
0.000596314
0.000565131
0.000529656
0.000489259
0.000442336
0.000389389
0.000334609
0.000280987
0.000230645
0.00018562
0.000147025
0.000115062
8.94981e-05
6.96706e-05
5.46465e-05
4.34402e-05
3.518e-05
2.90734e-05
2.44771e-05
2.08409e-05
1.77316e-05
1.47258e-05
1.17377e-05
9.15175e-06
7.19399e-06
5.79778e-06
4.78644e-06
4.00474e-06
3.27403e-06
2.44509e-06
1.37516e-06
4.19831e-07
7.58567e-09
1.52678e-08
1.11604e-05
8.3379e-05
0.00111312
0.00041454
0.000415811
0.000414855
0.000410402
0.000402461
0.000390185
0.000373739
0.000353202
0.000329027
0.000302177
0.000273502
0.000244014
0.000214807
0.000186663
0.000160299
0.000136179
0.000114947
9.71915e-05
8.17002e-05
6.67787e-05
5.29675e-05
3.99123e-05
3.25715e-05
2.10376e-05
8.78077e-08
3.03523e-09
0
0
0
0.0348228
0.0924146
8.97221
44.423
73.4822
76.4151
62.6579
44.3947
26.9295
18.3267
0.000409273
0.000402431
0.000391196
0.000372049
0.000351137
0.000326993
0.000298799
0.000267253
0.000234403
0.000201579
0.000169869
0.000140415
0.000114042
9.11494e-05
7.19131e-05
5.62511e-05
4.38322e-05
3.42079e-05
2.69051e-05
2.14318e-05
1.73524e-05
1.42724e-05
1.18452e-05
9.72662e-06
7.73626e-06
5.98873e-06
4.61658e-06
3.61173e-06
2.89048e-06
2.39974e-06
2.11686e-06
2.00961e-06
1.92099e-06
1.65167e-06
1.09482e-06
2.69731e-07
1.70383e-09
1.08454e-12
2.61209e-05
0.000280543
0.000282595
0.000283606
0.000282574
0.000279769
0.000274427
0.000266612
0.000256221
0.00024331
0.000228338
0.000211549
0.000193449
0.000174601
0.000155441
0.000136456
0.000118047
0.000100697
8.39789e-05
6.78658e-05
5.33307e-05
4.12305e-05
3.18046e-05
2.55181e-05
2.5203e-05
1.6704e-05
1.35353e-06
6.20639e-09
0
0
0
0.0335223
0.0630021
9.55126
49.516
74.107
64.824
44.4478
25.7221
15.9795
0.00027618
0.000271142
0.000263643
0.000251424
0.000238662
0.000223725
0.000206256
0.000186892
0.000166672
0.000146223
0.000126078
0.000106949
8.93692e-05
7.36577e-05
6.00293e-05
4.85763e-05
3.91965e-05
3.16958e-05
2.58164e-05
2.12584e-05
1.77229e-05
1.49214e-05
1.2582e-05
1.04461e-05
8.3973e-06
6.55422e-06
5.04599e-06
3.87325e-06
2.9633e-06
2.25524e-06
1.70987e-06
1.28694e-06
9.63442e-07
7.19894e-07
5.8072e-07
4.69171e-07
2.31981e-07
1.3233e-09
1.4632e-07
0.000193678
0.000195587
0.000196992
0.000197072
0.000196169
0.000193704
0.000189621
0.000183816
0.000176252
0.000167084
0.000156455
0.000144614
0.000131905
0.000118658
0.000105258
9.20423e-05
7.93025e-05
6.74025e-05
5.65433e-05
4.66531e-05
3.77618e-05
3.01763e-05
2.41923e-05
2.04098e-05
2.03474e-05
1.52414e-05
2.96114e-06
7.84757e-09
0
0
0
0.0248308
0.312153
16.992
52.2536
57.649
41.2152
23.5539
13.8052
0.00019038
0.000186749
0.000181749
0.000173785
0.000165682
0.000156159
0.000145079
0.000132918
0.000120204
0.000107243
9.42889e-05
8.17244e-05
6.98806e-05
5.89742e-05
4.91811e-05
4.06326e-05
3.33622e-05
2.7317e-05
2.23938e-05
1.84413e-05
1.52843e-05
1.27317e-05
1.05943e-05
8.69413e-06
6.94221e-06
5.39304e-06
4.13166e-06
3.16275e-06
2.43145e-06
1.88278e-06
1.48268e-06
1.20411e-06
1.00923e-06
8.75152e-07
7.78445e-07
7.42584e-07
7.35492e-07
7.26315e-07
5.28955e-10
0.000136267
0.000137936
0.000139394
0.000140008
0.00014008
0.000139239
0.000137372
0.0001344
0.000130255
0.000124982
0.000118606
0.000111241
0.000103061
9.4249e-05
8.50298e-05
7.56223e-05
6.62717e-05
5.71932e-05
4.83263e-05
3.99622e-05
3.25336e-05
2.63652e-05
2.16322e-05
1.8027e-05
1.58261e-05
1.54618e-05
1.25492e-05
3.72145e-06
5.89743e-09
0
0
0
0.0138
1.87884
21.2354
37.8535
32.3022
19.5365
11.3303
0.000133727
0.000131054
0.000127656
0.000122367
0.00011705
0.000110847
0.000103686
9.58883e-05
8.77492e-05
7.94024e-05
7.09757e-05
6.26836e-05
5.47059e-05
4.71751e-05
4.02293e-05
3.39873e-05
2.85112e-05
2.38201e-05
1.988e-05
1.6622e-05
1.39445e-05
1.1723e-05
9.82493e-06
8.12916e-06
6.56814e-06
5.17778e-06
4.02208e-06
3.10914e-06
2.39773e-06
1.84307e-06
1.41409e-06
1.08703e-06
8.37255e-07
6.55576e-07
5.18331e-07
4.65768e-07
3.93987e-07
9.78708e-07
1.94976e-07
9.7347e-05
9.87276e-05
0.000100028
0.000100786
0.000101238
0.000101139
0.000100361
9.88809e-05
9.65913e-05
9.35074e-05
8.9608e-05
8.49295e-05
7.95581e-05
7.35895e-05
6.71689e-05
6.0461e-05
5.36145e-05
4.686e-05
4.02911e-05
3.40831e-05
2.84333e-05
2.35255e-05
1.95617e-05
1.65206e-05
1.39227e-05
1.19827e-05
1.11719e-05
1.00715e-05
2.52509e-06
2.5129e-09
0
0
0.00307641
0.0051949
3.20713
13.8782
17.6601
13.1141
8.18801
9.54105e-05
9.34271e-05
9.10839e-05
8.75196e-05
8.39474e-05
7.98254e-05
7.51166e-05
7.00309e-05
6.47365e-05
5.93012e-05
5.37646e-05
4.82514e-05
4.28609e-05
3.76658e-05
3.27496e-05
2.82044e-05
2.40925e-05
2.04524e-05
1.72969e-05
1.46023e-05
1.23192e-05
1.03777e-05
8.6955e-06
7.19371e-06
5.82707e-06
4.61533e-06
3.59983e-06
2.78928e-06
2.15441e-06
1.66008e-06
1.28043e-06
9.98424e-07
7.91e-07
6.47031e-07
5.45398e-07
5.16462e-07
4.7653e-07
8.59277e-07
1.245e-06
7.04757e-05
7.15941e-05
7.26933e-05
7.34404e-05
7.40332e-05
7.42854e-05
7.41004e-05
7.34517e-05
7.22626e-05
7.05254e-05
6.82039e-05
6.52964e-05
6.18372e-05
5.7877e-05
5.34911e-05
4.87837e-05
4.38567e-05
3.88943e-05
3.39326e-05
2.90863e-05
2.45874e-05
2.06347e-05
1.73643e-05
1.4793e-05
1.26235e-05
1.05161e-05
8.72721e-06
7.96897e-06
7.56202e-06
9.95265e-07
2.39372e-10
0
0
0.014733
0.0329832
1.58045
4.3743
5.29441
4.43742
6.90005e-05
6.75065e-05
6.58653e-05
6.34349e-05
6.099e-05
5.81972e-05
5.50558e-05
5.16935e-05
4.82043e-05
4.46188e-05
4.09527e-05
3.72682e-05
3.36178e-05
3.00333e-05
2.65719e-05
2.32918e-05
2.02405e-05
1.74609e-05
1.49766e-05
1.27942e-05
1.08966e-05
9.24555e-06
7.78967e-06
6.47943e-06
5.28966e-06
4.2306e-06
3.33163e-06
2.60135e-06
2.02036e-06
1.56151e-06
1.20333e-06
9.30358e-07
7.23391e-07
5.75174e-07
4.68451e-07
4.27738e-07
4.03015e-07
6.19509e-07
1.50793e-06
5.15992e-05
5.24928e-05
5.34006e-05
5.40751e-05
5.46709e-05
5.50536e-05
5.5157e-05
5.49566e-05
5.43884e-05
5.34413e-05
5.20782e-05
5.02825e-05
4.80623e-05
4.54321e-05
4.24379e-05
3.91439e-05
3.56145e-05
3.19745e-05
2.82975e-05
2.46507e-05
2.11901e-05
1.80714e-05
1.53986e-05
1.31995e-05
1.13386e-05
9.55731e-06
7.81097e-06
6.15404e-06
5.85327e-06
5.79349e-06
6.60466e-08
2.82738e-14
0
0.000509429
0.0152878
0.030754
0.209367
0.617876
1.02713
5.04805e-05
4.9351e-05
4.81836e-05
4.65037e-05
4.48028e-05
4.28853e-05
4.07621e-05
3.8508e-05
3.61826e-05
3.37983e-05
3.13531e-05
2.88766e-05
2.63966e-05
2.39288e-05
2.14947e-05
1.91372e-05
1.68892e-05
1.47854e-05
1.28509e-05
1.11015e-05
9.53766e-06
8.14317e-06
6.89112e-06
5.75561e-06
4.72389e-06
3.80385e-06
3.01534e-06
2.36665e-06
1.84531e-06
1.4308e-06
1.10571e-06
8.57188e-07
6.69622e-07
5.35659e-07
4.38824e-07
3.98709e-07
3.74272e-07
5.1676e-07
1.30379e-06
3.81512e-05
3.88574e-05
3.95973e-05
4.01777e-05
4.07247e-05
4.11415e-05
4.13715e-05
4.14039e-05
4.119e-05
4.07108e-05
3.99411e-05
3.88517e-05
3.74469e-05
3.57272e-05
3.37088e-05
3.14284e-05
2.89276e-05
2.62852e-05
2.35764e-05
2.08283e-05
1.81582e-05
1.57056e-05
1.35499e-05
1.17151e-05
1.01216e-05
8.61557e-06
7.16532e-06
5.67714e-06
4.34693e-06
5.01329e-06
2.78896e-06
1.31289e-09
0
0
0.00432468
0.0198949
0.0336931
0.0495277
0.0847451
3.72984e-05
3.64461e-05
3.56023e-05
3.44279e-05
3.32293e-05
3.18969e-05
3.0441e-05
2.89161e-05
2.73501e-05
2.57504e-05
2.41084e-05
2.24384e-05
2.07514e-05
1.90496e-05
1.73458e-05
1.56614e-05
1.4017e-05
1.24398e-05
1.09513e-05
9.56805e-06
8.29719e-06
7.13716e-06
6.07672e-06
5.10591e-06
4.22029e-06
3.42648e-06
2.73918e-06
2.16577e-06
1.69874e-06
1.32323e-06
1.0253e-06
7.93819e-07
6.16716e-07
4.87629e-07
3.92072e-07
3.47243e-07
3.17251e-07
4.24022e-07
1.05787e-06
2.84485e-05
2.90043e-05
2.96024e-05
3.00869e-05
3.05647e-05
3.09643e-05
3.12366e-05
3.1382e-05
3.13607e-05
3.11547e-05
3.07454e-05
3.01075e-05
2.92328e-05
2.81177e-05
2.67654e-05
2.51972e-05
2.344e-05
2.15367e-05
1.95556e-05
1.75106e-05
1.54776e-05
1.35695e-05
1.18484e-05
1.03376e-05
8.9941e-06
7.72163e-06
6.47465e-06
5.34865e-06
4.06323e-06
3.24955e-06
4.61008e-06
4.73092e-07
1.40885e-13
0
1.59848e-08
0.000376705
0.00312492
0.0082607
0.00850501
2.77962e-05
2.71533e-05
2.65378e-05
2.5705e-05
2.48502e-05
2.39151e-05
2.2908e-05
2.18646e-05
2.08025e-05
1.97214e-05
1.86134e-05
1.74804e-05
1.63296e-05
1.51575e-05
1.39666e-05
1.27694e-05
1.15764e-05
1.04033e-05
9.26773e-06
8.18442e-06
7.16463e-06
6.21225e-06
5.3251e-06
4.5012e-06
3.74487e-06
3.06349e-06
2.46787e-06
1.96424e-06
1.54897e-06
1.21158e-06
9.41447e-07
7.29539e-07
5.66707e-07
4.46982e-07
3.57479e-07
3.12327e-07
2.8102e-07
3.58674e-07
8.68353e-07
2.13699e-05
2.1809e-05
2.22881e-05
2.26866e-05
2.30935e-05
2.34523e-05
2.37267e-05
2.39178e-05
2.39959e-05
2.39472e-05
2.37547e-05
2.33965e-05
2.28663e-05
2.21547e-05
2.12636e-05
2.01991e-05
1.89766e-05
1.76194e-05
1.61839e-05
1.46717e-05
1.31335e-05
1.16585e-05
1.02955e-05
9.06648e-06
7.94724e-06
6.88351e-06
5.82079e-06
4.86792e-06
3.97015e-06
2.77446e-06
3.28779e-06
2.57869e-06
9.67514e-10
0
0
3.13381e-05
0.000469587
0.000198481
0.00140479
2.08716e-05
2.03849e-05
1.99337e-05
1.93361e-05
1.87201e-05
1.80567e-05
1.73537e-05
1.66339e-05
1.5907e-05
1.51721e-05
1.44198e-05
1.36503e-05
1.28646e-05
1.20567e-05
1.12265e-05
1.03772e-05
9.51586e-06
8.6503e-06
7.79262e-06
6.95427e-06
6.14527e-06
5.37246e-06
4.63856e-06
3.94807e-06
3.30866e-06
2.72827e-06
2.2155e-06
1.77619e-06
1.40923e-06
1.10763e-06
8.63591e-07
6.69989e-07
5.19471e-07
4.06966e-07
3.21395e-07
2.74651e-07
2.41533e-07
2.96583e-07
7.1234e-07
1.61567e-05
1.65042e-05
1.68856e-05
1.72112e-05
1.75505e-05
1.78613e-05
1.81164e-05
1.83177e-05
1.84404e-05
1.84758e-05
1.84113e-05
1.82275e-05
1.79206e-05
1.74797e-05
1.69009e-05
1.61866e-05
1.53448e-05
1.43865e-05
1.3356e-05
1.22503e-05
1.1098e-05
9.96806e-06
8.89864e-06
7.90984e-06
6.98892e-06
6.1043e-06
5.22393e-06
4.37826e-06
3.68851e-06
2.80539e-06
2.23915e-06
3.03294e-06
3.7304e-07
1.36163e-12
0
0
0
1.76172e-05
0
1.57763e-05
1.54087e-05
1.50747e-05
1.46404e-05
1.41921e-05
1.37185e-05
1.32232e-05
1.2723e-05
1.22222e-05
1.17195e-05
1.12067e-05
1.06815e-05
1.01435e-05
9.58742e-06
9.009e-06
8.40986e-06
7.79082e-06
7.15718e-06
6.51471e-06
5.87227e-06
5.23753e-06
4.61725e-06
4.01668e-06
3.44356e-06
2.90744e-06
2.41618e-06
1.97759e-06
1.59705e-06
1.2749e-06
1.00705e-06
7.8793e-07
6.12254e-07
4.74273e-07
3.69599e-07
2.88724e-07
2.41316e-07
2.06959e-07
2.42741e-07
5.7769e-07
1.22856e-05
1.25603e-05
1.28629e-05
1.31276e-05
1.34062e-05
1.36707e-05
1.38965e-05
1.40885e-05
1.42273e-05
1.43059e-05
1.43139e-05
1.42382e-05
1.40718e-05
1.3807e-05
1.34395e-05
1.29678e-05
1.23966e-05
1.17283e-05
1.09957e-05
1.01977e-05
9.34426e-06
8.48562e-06
7.65435e-06
6.86749e-06
6.11959e-06
5.39004e-06
4.66787e-06
3.9494e-06
3.33135e-06
2.75536e-06
1.99043e-06
2.15252e-06
1.90065e-06
1.11963e-11
1.04841e-17
0
0
0
0
1.19936e-05
1.17169e-05
1.14679e-05
1.11478e-05
1.08205e-05
1.04792e-05
1.01283e-05
9.77746e-06
9.43037e-06
9.08436e-06
8.73331e-06
8.37417e-06
8.00545e-06
7.62194e-06
7.21976e-06
6.79782e-06
6.35519e-06
5.89379e-06
5.41656e-06
4.92841e-06
4.43563e-06
3.94411e-06
3.45882e-06
2.98757e-06
2.54108e-06
2.12855e-06
1.75621e-06
1.42896e-06
1.14811e-06
9.11733e-07
7.16116e-07
5.5748e-07
4.31389e-07
3.3412e-07
2.57696e-07
2.09835e-07
1.74658e-07
1.95811e-07
4.61027e-07
9.38963e-06
9.60612e-06
9.847e-06
1.00595e-05
1.02881e-05
1.05085e-05
1.07042e-05
1.08777e-05
1.10156e-05
1.11117e-05
1.11587e-05
1.11451e-05
1.10671e-05
1.09172e-05
1.06919e-05
1.03877e-05
1.00059e-05
9.54793e-06
9.03205e-06
8.46278e-06
7.83835e-06
7.19267e-06
6.55358e-06
5.93471e-06
5.335e-06
4.7408e-06
4.1493e-06
3.56149e-06
3.01032e-06
2.5618e-06
1.99902e-06
1.62644e-06
2.01621e-06
6.6011e-07
1.10779e-09
2.38387e-13
0
0
0
9.1645e-06
8.9556e-06
8.76915e-06
8.53143e-06
8.29086e-06
8.04319e-06
7.79251e-06
7.54533e-06
7.30314e-06
7.06412e-06
6.82295e-06
6.57629e-06
6.32305e-06
6.05841e-06
5.77873e-06
5.4824e-06
5.16725e-06
4.83299e-06
4.48096e-06
4.11373e-06
3.73476e-06
3.34847e-06
2.9597e-06
2.57638e-06
2.20875e-06
1.86502e-06
1.55114e-06
1.27158e-06
1.02846e-06
8.21175e-07
6.47619e-07
5.05155e-07
3.90601e-07
3.00676e-07
2.28895e-07
1.81245e-07
1.45735e-07
1.55793e-07
3.6197e-07
7.20857e-06
7.37935e-06
7.57035e-06
7.74094e-06
7.92646e-06
8.10905e-06
8.27464e-06
8.4272e-06
8.5554e-06
8.65461e-06
8.71994e-06
8.7423e-06
8.71865e-06
8.64337e-06
8.51162e-06
8.32146e-06
8.07173e-06
7.76268e-06
7.40334e-06
7.00085e-06
6.54942e-06
6.06955e-06
5.58402e-06
5.10387e-06
4.62952e-06
4.15267e-06
3.67192e-06
3.19621e-06
2.73299e-06
2.33757e-06
1.9596e-06
1.51505e-06
1.55221e-06
1.89283e-06
4.35084e-07
2.63355e-10
3.43376e-10
0
0
7.03441e-06
6.87611e-06
6.73597e-06
6.55851e-06
6.38009e-06
6.19945e-06
6.01922e-06
5.84376e-06
5.67389e-06
5.50808e-06
5.34182e-06
5.17238e-06
4.9979e-06
4.8153e-06
4.62084e-06
4.41287e-06
4.18919e-06
3.94844e-06
3.69016e-06
3.41569e-06
3.12701e-06
2.82674e-06
2.51852e-06
2.20958e-06
1.90932e-06
1.62502e-06
1.36234e-06
1.12531e-06
9.16352e-07
7.35849e-07
5.8284e-07
4.55628e-07
3.5204e-07
2.6925e-07
2.02131e-07
1.55255e-07
1.19863e-07
1.21827e-07
2.79532e-07
5.55607e-06
5.69115e-06
5.84212e-06
5.97861e-06
6.12867e-06
6.27848e-06
6.41694e-06
6.54817e-06
6.66281e-06
6.75745e-06
6.82889e-06
6.86966e-06
6.87755e-06
6.8482e-06
6.77785e-06
6.6642e-06
6.50556e-06
6.30132e-06
6.05603e-06
5.77625e-06
5.45391e-06
5.10093e-06
4.73628e-06
4.36852e-06
3.99856e-06
3.6212e-06
3.23587e-06
2.85243e-06
2.47714e-06
2.13541e-06
1.84807e-06
1.51385e-06
1.34877e-06
1.85203e-06
2.16952e-06
9.57832e-07
3.11068e-07
1.39933e-13
0
5.42096e-06
5.30046e-06
5.19492e-06
5.0615e-06
4.92829e-06
4.79584e-06
4.66548e-06
4.54039e-06
4.42084e-06
4.30551e-06
4.19032e-06
4.07316e-06
3.95289e-06
3.82661e-06
3.69153e-06
3.54581e-06
3.38737e-06
3.2147e-06
3.02657e-06
2.82299e-06
2.6045e-06
2.3732e-06
2.13135e-06
1.88466e-06
1.6411e-06
1.40781e-06
1.18967e-06
9.90254e-07
8.1196e-07
6.55882e-07
5.2183e-07
4.08904e-07
3.15701e-07
2.39908e-07
1.7749e-07
1.31911e-07
9.70695e-08
9.31859e-08
2.11832e-07
4.29725e-06
4.40406e-06
4.52373e-06
4.63228e-06
4.75352e-06
4.87576e-06
4.99053e-06
5.10164e-06
5.20154e-06
5.28781e-06
5.35784e-06
5.40624e-06
5.43143e-06
5.42985e-06
5.39897e-06
5.33608e-06
5.23983e-06
5.10919e-06
4.94535e-06
4.75428e-06
4.5276e-06
4.27117e-06
4.00054e-06
3.72219e-06
3.43766e-06
3.14327e-06
2.83915e-06
2.53326e-06
2.23351e-06
1.95329e-06
1.71703e-06
1.48565e-06
1.33392e-06
1.62993e-06
2.29255e-06
2.58445e-06
5.16718e-06
3.81649e-12
0
4.19229e-06
4.09997e-06
4.02011e-06
3.91938e-06
3.81949e-06
3.72184e-06
3.62723e-06
3.53753e-06
3.45297e-06
3.37228e-06
3.29264e-06
3.21162e-06
3.12847e-06
3.04098e-06
2.94689e-06
2.84492e-06
2.73304e-06
2.60941e-06
2.4729e-06
2.3228e-06
2.15899e-06
1.98208e-06
1.79368e-06
1.59827e-06
1.40267e-06
1.21284e-06
1.03301e-06
8.66426e-07
7.1539e-07
5.8133e-07
4.64667e-07
3.65014e-07
2.81532e-07
2.12567e-07
1.54949e-07
1.11192e-07
7.72926e-08
6.94404e-08
1.57267e-07
3.33385e-06
3.41836e-06
3.51299e-06
3.5994e-06
3.69714e-06
3.79631e-06
3.89091e-06
3.98375e-06
4.06932e-06
4.14554e-06
4.2108e-06
4.26062e-06
4.29412e-06
4.30857e-06
4.30169e-06
4.2719e-06
4.21739e-06
4.13714e-06
4.03077e-06
3.90366e-06
3.74745e-06
3.56395e-06
3.36593e-06
3.15831e-06
2.94255e-06
2.71609e-06
2.47956e-06
2.23933e-06
2.00249e-06
1.78085e-06
1.59063e-06
1.42241e-06
1.34407e-06
1.5497e-06
1.93443e-06
2.76197e-06
8.24019e-06
8.20895e-12
0
3.25196e-06
3.18092e-06
3.12038e-06
3.04386e-06
2.96859e-06
2.89644e-06
2.82725e-06
2.76276e-06
2.70279e-06
2.64626e-06
2.59082e-06
2.53468e-06
2.47699e-06
2.41639e-06
2.35096e-06
2.27949e-06
2.20048e-06
2.11229e-06
2.01364e-06
1.90356e-06
1.7815e-06
1.64729e-06
1.50178e-06
1.34832e-06
1.19241e-06
1.03906e-06
8.91827e-07
7.5366e-07
6.26665e-07
5.12335e-07
4.11493e-07
3.24085e-07
2.49714e-07
1.87416e-07
1.34539e-07
9.30066e-08
6.04436e-08
5.00555e-08
1.14176e-07
2.5934e-06
2.66033e-06
2.73517e-06
2.80401e-06
2.88234e-06
2.96279e-06
3.04016e-06
3.11715e-06
3.18927e-06
3.25521e-06
3.31363e-06
3.36129e-06
3.39729e-06
3.4201e-06
3.42767e-06
3.41867e-06
3.39178e-06
3.3458e-06
3.27967e-06
3.19816e-06
3.09316e-06
2.96426e-06
2.82166e-06
2.66924e-06
2.50817e-06
2.3367e-06
2.1556e-06
1.97024e-06
1.78619e-06
1.61508e-06
1.46953e-06
1.34473e-06
1.32102e-06
1.52009e-06
1.68798e-06
2.63851e-06
7.76698e-06
8.68393e-12
0
2.5291e-06
2.47449e-06
2.42835e-06
2.37007e-06
2.31315e-06
2.25953e-06
2.20872e-06
2.16201e-06
2.11928e-06
2.07958e-06
2.04108e-06
2.00218e-06
1.96222e-06
1.92e-06
1.87425e-06
1.82427e-06
1.76857e-06
1.7058e-06
1.63475e-06
1.55444e-06
1.46404e-06
1.36295e-06
1.25137e-06
1.13169e-06
1.00822e-06
8.85124e-07
7.65538e-07
6.51785e-07
5.45755e-07
4.48964e-07
3.62349e-07
2.86197e-07
2.20396e-07
1.64475e-07
1.16328e-07
7.73457e-08
4.64838e-08
3.46051e-08
8.07975e-08
2.02217e-06
2.07522e-06
2.13438e-06
2.18934e-06
2.2521e-06
2.31706e-06
2.38003e-06
2.44345e-06
2.50374e-06
2.55976e-06
2.6109e-06
2.65438e-06
2.68976e-06
2.71593e-06
2.73122e-06
2.73489e-06
2.72559e-06
2.70247e-06
2.66405e-06
2.61434e-06
2.54662e-06
2.45785e-06
2.35686e-06
2.24679e-06
2.12883e-06
2.0014e-06
1.86523e-06
1.72491e-06
1.58502e-06
1.45614e-06
1.34968e-06
1.25989e-06
1.2669e-06
1.47121e-06
1.54005e-06
2.44213e-06
6.79042e-06
8.50817e-12
0
1.97152e-06
1.92938e-06
1.89416e-06
1.84959e-06
1.80641e-06
1.76633e-06
1.72883e-06
1.69492e-06
1.66434e-06
1.63642e-06
1.60958e-06
1.58249e-06
1.55468e-06
1.52537e-06
1.49351e-06
1.4584e-06
1.41907e-06
1.3744e-06
1.32341e-06
1.26501e-06
1.19838e-06
1.12272e-06
1.03779e-06
9.45127e-07
8.48133e-07
7.50009e-07
6.53508e-07
5.60481e-07
4.72576e-07
3.91195e-07
3.17294e-07
2.51389e-07
1.93604e-07
1.43707e-07
1.00142e-07
6.39803e-08
3.51566e-08
2.26348e-08
5.56256e-08
1.57998e-06
1.62218e-06
1.669e-06
1.71271e-06
1.76303e-06
1.81535e-06
1.86643e-06
1.91828e-06
1.96828e-06
2.01535e-06
2.05927e-06
2.0978e-06
2.13077e-06
2.15718e-06
2.17605e-06
2.18683e-06
2.18834e-06
2.18002e-06
2.16032e-06
2.13222e-06
2.09086e-06
2.03202e-06
1.96206e-06
1.88425e-06
1.79954e-06
1.70669e-06
1.60635e-06
1.50238e-06
1.39885e-06
1.30469e-06
1.22979e-06
1.16956e-06
1.19494e-06
1.39093e-06
1.41508e-06
2.22162e-06
6.08128e-06
2.97945e-10
0
1.54008e-06
1.50745e-06
1.48048e-06
1.44634e-06
1.41344e-06
1.38329e-06
1.35549e-06
1.33066e-06
1.30871e-06
1.28901e-06
1.27031e-06
1.25143e-06
1.23201e-06
1.21155e-06
1.18936e-06
1.16473e-06
1.13694e-06
1.10513e-06
1.06863e-06
1.02642e-06
9.77571e-07
9.2118e-07
8.56807e-07
7.85474e-07
7.09724e-07
6.32107e-07
5.54739e-07
4.79209e-07
4.06852e-07
3.38882e-07
2.76286e-07
2.19627e-07
1.69221e-07
1.2501e-07
8.59502e-08
5.28098e-08
2.62313e-08
1.37186e-08
3.72043e-08
1.23678e-06
1.27037e-06
1.3075e-06
1.34225e-06
1.38256e-06
1.42457e-06
1.46583e-06
1.50815e-06
1.54922e-06
1.58843e-06
1.62558e-06
1.65899e-06
1.68858e-06
1.71365e-06
1.7335e-06
1.74768e-06
1.75537e-06
1.75618e-06
1.74879e-06
1.73499e-06
1.7115e-06
1.67427e-06
1.62731e-06
1.57367e-06
1.51446e-06
1.44859e-06
1.37655e-06
1.30151e-06
1.22712e-06
1.16082e-06
1.11099e-06
1.07484e-06
1.11222e-06
1.29411e-06
1.29605e-06
1.97199e-06
5.9269e-06
2.27545e-08
1.48194e-14
1.20538e-06
1.18004e-06
1.15932e-06
1.13304e-06
1.10785e-06
1.08504e-06
1.06427e-06
1.04602e-06
1.03019e-06
1.01623e-06
1.00313e-06
9.89934e-07
9.76413e-07
9.62163e-07
9.4658e-07
9.29247e-07
9.09602e-07
8.87086e-07
8.60984e-07
8.30516e-07
7.94831e-07
7.53066e-07
7.04573e-07
6.50015e-07
5.91208e-07
5.30139e-07
4.68496e-07
4.07538e-07
3.4835e-07
2.91972e-07
2.39292e-07
1.90913e-07
1.47232e-07
1.08359e-07
7.36009e-08
4.36054e-08
1.94766e-08
7.43448e-09
2.42394e-08
9.69844e-07
9.96522e-07
1.02601e-06
1.05361e-06
1.08584e-06
1.1196e-06
1.1528e-06
1.18716e-06
1.2207e-06
1.25312e-06
1.28418e-06
1.31267e-06
1.3385e-06
1.36133e-06
1.38049e-06
1.39578e-06
1.40667e-06
1.41268e-06
1.41303e-06
1.40854e-06
1.39709e-06
1.3749e-06
1.34449e-06
1.3086e-06
1.26854e-06
1.22341e-06
1.17332e-06
1.12102e-06
1.06949e-06
1.02512e-06
9.95146e-07
9.77755e-07
1.02296e-06
1.19192e-06
1.15719e-06
2.07587e-06
4.74088e-06
2.99176e-07
2.78911e-13
9.45078e-07
9.25379e-07
9.09367e-07
8.89058e-07
8.69667e-07
8.52297e-07
8.36656e-07
8.2315e-07
8.11652e-07
8.01706e-07
7.92486e-07
7.83236e-07
7.73769e-07
7.63858e-07
7.52914e-07
7.40683e-07
7.26772e-07
7.10787e-07
6.92192e-07
6.70284e-07
6.44306e-07
6.13532e-07
5.77191e-07
5.35659e-07
4.90253e-07
4.42471e-07
3.93633e-07
3.44746e-07
2.96641e-07
2.50193e-07
2.06158e-07
1.65149e-07
1.27557e-07
9.36457e-08
6.30228e-08
3.61971e-08
1.45815e-08
3.35603e-09
1.5562e-08
7.61753e-07
7.8294e-07
8.06296e-07
8.28257e-07
8.53996e-07
8.81014e-07
9.07724e-07
9.35498e-07
9.62761e-07
9.89313e-07
1.01508e-06
1.03902e-06
1.06124e-06
1.08139e-06
1.09904e-06
1.1141e-06
1.12613e-06
1.13484e-06
1.13964e-06
1.14096e-06
1.13735e-06
1.12543e-06
1.10656e-06
1.0835e-06
1.05747e-06
1.02778e-06
9.9436e-07
9.59513e-07
9.25556e-07
8.98155e-07
8.83606e-07
8.80231e-07
9.30513e-07
1.08941e-06
1.0352e-06
2.18156e-06
3.35928e-06
3.21772e-07
4.03103e-13
7.42242e-07
7.2692e-07
7.14459e-07
6.98611e-07
6.83585e-07
6.70298e-07
6.58415e-07
6.48333e-07
6.39921e-07
6.32811e-07
6.26301e-07
6.19778e-07
6.13102e-07
6.06163e-07
5.98472e-07
5.89803e-07
5.7997e-07
5.68657e-07
5.55422e-07
5.39712e-07
5.20918e-07
4.98308e-07
4.71174e-07
4.39699e-07
4.04788e-07
3.67628e-07
3.2915e-07
2.90174e-07
2.51325e-07
2.13301e-07
1.76747e-07
1.4223e-07
1.10116e-07
8.07747e-08
5.40312e-08
3.03447e-08
1.12728e-08
1.07487e-09
1.01972e-08
5.99228e-07
6.16046e-07
6.34517e-07
6.51953e-07
6.725e-07
6.94106e-07
7.15542e-07
7.37908e-07
7.59999e-07
7.81624e-07
8.02834e-07
8.22759e-07
8.41536e-07
8.5892e-07
8.74635e-07
8.88584e-07
9.00575e-07
9.10346e-07
9.1743e-07
9.22078e-07
9.23362e-07
9.18245e-07
9.07343e-07
8.93241e-07
8.77266e-07
8.58835e-07
8.37754e-07
8.15896e-07
7.95158e-07
7.80458e-07
7.7736e-07
7.84188e-07
8.37024e-07
9.85949e-07
9.28689e-07
2.06188e-06
2.8036e-06
2.928e-07
4.87883e-13
5.83901e-07
5.71945e-07
5.62142e-07
5.49674e-07
5.37968e-07
5.27695e-07
5.18608e-07
5.11019e-07
5.04819e-07
4.99683e-07
4.95036e-07
4.90439e-07
4.85754e-07
4.80826e-07
4.75367e-07
4.69196e-07
4.62254e-07
4.54253e-07
4.44846e-07
4.33614e-07
4.20077e-07
4.03527e-07
3.83357e-07
3.59621e-07
3.32943e-07
3.04147e-07
2.73996e-07
2.43085e-07
2.119e-07
1.80974e-07
1.50838e-07
1.21996e-07
9.47704e-08
6.96066e-08
4.6499e-08
2.58433e-08
9.23593e-09
2.02012e-10
7.3139e-09
4.72077e-07
4.85369e-07
4.99971e-07
5.1379e-07
5.30185e-07
5.47434e-07
5.64586e-07
5.82583e-07
6.00401e-07
6.17923e-07
6.35241e-07
6.51667e-07
6.6733e-07
6.82088e-07
6.9572e-07
7.08237e-07
7.19447e-07
7.29187e-07
7.37144e-07
7.43467e-07
7.47572e-07
7.46756e-07
7.41169e-07
7.33207e-07
7.24183e-07
7.13704e-07
7.01464e-07
6.88993e-07
6.77908e-07
6.72292e-07
6.77161e-07
6.91175e-07
7.43876e-07
8.80806e-07
8.27269e-07
1.85337e-06
2.52072e-06
2.80759e-07
5.96795e-13
4.60052e-07
4.50671e-07
4.42887e-07
4.32998e-07
4.238e-07
4.15812e-07
4.088e-07
4.03024e-07
3.98411e-07
3.9467e-07
3.91353e-07
3.88048e-07
3.84712e-07
3.81224e-07
3.77329e-07
3.72932e-07
3.67983e-07
3.62305e-07
3.55653e-07
3.47683e-07
3.37958e-07
3.25899e-07
3.10967e-07
2.93125e-07
2.7283e-07
2.50629e-07
2.27124e-07
2.02746e-07
1.77857e-07
1.52868e-07
1.282e-07
1.04288e-07
8.13865e-08
6.00025e-08
4.02362e-08
2.24565e-08
8.20146e-09
3.8079e-10
6.21314e-09
3.72396e-07
3.82894e-07
3.94398e-07
4.0534e-07
4.18389e-07
4.32161e-07
4.45862e-07
4.60272e-07
4.74609e-07
4.88743e-07
5.02806e-07
5.16239e-07
5.29178e-07
5.41542e-07
5.53144e-07
5.64028e-07
5.74077e-07
5.83193e-07
5.91182e-07
5.98094e-07
6.03608e-07
6.05349e-07
6.03084e-07
5.99134e-07
5.94759e-07
5.89707e-07
5.83567e-07
5.77656e-07
5.7334e-07
5.73856e-07
5.8374e-07
6.02244e-07
6.522e-07
7.75124e-07
7.30785e-07
1.60554e-06
2.17065e-06
2.6773e-07
6.99943e-13
3.62948e-07
3.55561e-07
3.4932e-07
3.41433e-07
3.34162e-07
3.27899e-07
3.22452e-07
3.1802e-07
3.14544e-07
3.11778e-07
3.09364e-07
3.06987e-07
3.04592e-07
3.02095e-07
2.99284e-07
2.96135e-07
2.92606e-07
2.88587e-07
2.83901e-07
2.78269e-07
2.71308e-07
2.62563e-07
2.51557e-07
2.38215e-07
2.22819e-07
2.0578e-07
1.87528e-07
1.68402e-07
1.48659e-07
1.2861e-07
1.0857e-07
8.88959e-08
6.97999e-08
5.1799e-08
3.50834e-08
1.99736e-08
7.90349e-09
1.28612e-09
6.30315e-09
2.94077e-07
3.02357e-07
3.11416e-07
3.20082e-07
3.30463e-07
3.41427e-07
3.52364e-07
3.63901e-07
3.75383e-07
3.86748e-07
3.98111e-07
4.09022e-07
4.19612e-07
4.29834e-07
4.3955e-07
4.48827e-07
4.57586e-07
4.65783e-07
4.73266e-07
4.8003e-07
4.85998e-07
4.89083e-07
4.8881e-07
4.87328e-07
4.85882e-07
4.84323e-07
4.82234e-07
4.80659e-07
4.80832e-07
4.85157e-07
4.97799e-07
5.18405e-07
5.63547e-07
6.7156e-07
6.46351e-07
1.25607e-06
2.0623e-06
3.18225e-07
1.03133e-12
2.86635e-07
2.80785e-07
2.75767e-07
2.69445e-07
2.63678e-07
2.5875e-07
2.54483e-07
2.51052e-07
2.48398e-07
2.46326e-07
2.44539e-07
2.42797e-07
2.41054e-07
2.39244e-07
2.37211e-07
2.34914e-07
2.32401e-07
2.29562e-07
2.26264e-07
2.223e-07
2.17344e-07
2.11027e-07