/*--------------------------------*- C++ -*----------------------------------*\
| =========                 |                                                 |
| \\      /  F ield         | OpenFOAM: The Open Source CFD Toolbox           |
|  \\    /   O peration     | Version:  2312                                  |
|   \\  /    A nd           | Website:  www.openfoam.com                      |
|    \\/     M anipulation  |                                                 |
\*---------------------------------------------------------------------------*/
FoamFile
{
    version     2.0;
    format      ascii;
    arch        "LSB;label=32;scalar=64";
    class       volScalarField;
    location    "50";
    object      turbulenceProperties:L;
}
// * * * * * * * * * * * * * * * * * * * * * * * * * * * * * * * * * * * * * //

dimensions      [0 1 0 0 0 0 0];

internalField   nonuniform List<scalar> 
10720
(
0.00221059
0.00207647
0.0019508
0.00183109
0.00174166
0.00167339
0.00163071
0.00161883
0.00163882
0.00169302
0.00178483
0.00191943
0.00210213
0.00234816
0.00266911
0.00308976
0.00364793
0.00441552
0.00548759
0.00706585
0.00952516
0.0138794
0.0211461
0.0408609
0.0538118
0.0593746
0.0660096
0.0702047
0.073361
0.077563
0.0832162
0.0872176
0.0883353
0.0828219
0.131745
0.0912409
0.0933073
0.100578
0.0776384
0.00237106
0.0025422
0.00279905
0.00311943
0.00351604
0.00381207
0.00360491
0.00320286
0.00279999
0.00247428
0.00224795
0.00212328
0.0020936
0.00215329
0.00229695
0.00252544
0.00284819
0.00328454
0.00387323
0.00466016
0.0057375
0.00722822
0.00943687
0.0123965
0.0173524
0.0244252
0.0362434
0.0473586
0.0529128
0.0547731
0.0553422
0.0556168
0.055795
0.0559084
0.0559912
0.0560736
0.0561827
0.0564205
0.0564381
0.00420138
0.00420087
0.00421961
0.00427092
0.00435436
0.00446464
0.00461195
0.00480053
0.00502078
0.0052791
0.00557119
0.00587935
0.00618717
0.00651695
0.00649151
0.00603698
0.00539632
0.0054757
0.00636162
0.00779495
0.00940275
0.0130404
0.0157671
0.0282074
0.0427331
0.0595879
0.0809496
0.105002
0.131222
0.157782
0.18036
0.198224
0.222781
0.24422
0.24365
0.235304
0.22628
0.204859
0.186196
0.00422538
0.0042645
0.00432999
0.00444344
0.0045984
0.00476666
0.00497769
0.00526079
0.00560203
0.00599477
0.00645245
0.00698499
0.00760254
0.00831392
0.00911951
0.0100098
0.0110083
0.0121317
0.0135079
0.0153923
0.0185712
0.0255689
0.0397869
0.0656582
0.00917312
0.0139606
0.0338559
0.0749557
0.123086
0.168019
0.201012
0.218056
0.222688
0.221038
0.217306
0.21299
0.208487
0.198355
0.176336
0.00502374
0.00506839
0.00514742
0.00526485
0.00540187
0.00557027
0.00576679
0.00597192
0.00617661
0.0063614
0.00651432
0.00662993
0.00670522
0.00675249
0.0067579
0.00665149
0.00671699
0.00679582
0.0112227
0.0194114
0.00689424
0.00642707
0.014947
0.0159848
0.0293179
0.0442553
0.0641446
0.0916838
0.124604
0.161188
0.199012
0.235415
0.283237
0.334481
0.336491
0.339001
0.327519
0.301578
0.24659
0.00499351
0.00498469
0.00499956
0.00507545
0.00520491
0.00537581
0.00556976
0.00584105
0.00621943
0.00671908
0.00735814
0.00814311
0.00907948
0.0101683
0.0113464
0.0125384
0.0136466
0.0145959
0.0153288
0.0158357
0.0161357
0.0162216
0.0161233
0.0158657
0.0156459
0.0155258
0.0159316
0.0159051
0.0225871
0.0583558
0.123479
0.195446
0.228857
0.242031
0.249552
0.255183
0.258456
0.267333
0.255061
0.00563129
0.00563283
0.00565134
0.00568331
0.00573664
0.00581524
0.00591614
0.00604543
0.00620265
0.00638991
0.00660997
0.00686386
0.0071516
0.00748129
0.00786539
0.00832019
0.00893826
0.0097045
0.0109631
0.0120588
0.0518196
0.0199238
0.0194858
0.00829938
0.032753
0.0298754
0.0411711
0.0671239
0.102314
0.142721
0.186838
0.233599
0.291854
0.359911
0.392093
0.40666
0.394868
0.367703
0.296019
0.00564988
0.00567771
0.00572932
0.00582186
0.00594504
0.00609867
0.00630167
0.00657728
0.00692505
0.00733913
0.00781723
0.0083522
0.00894026
0.00957636
0.0102418
0.0109274
0.0116126
0.0122808
0.0129022
0.0134769
0.0140001
0.0145029
0.0150388
0.0157361
0.0166105
0.0174497
0.0181669
0.0186393
0.020006
0.020605
0.130797
0.0287747
0.0627788
0.211215
0.250785
0.246902
0.255171
0.256586
0.253839
0.00641255
0.00642773
0.00645955
0.00651425
0.00659345
0.00670281
0.0068431
0.00701776
0.00722827
0.00747192
0.00774654
0.00804616
0.00836107
0.00868028
0.00899324
0.00927765
0.00951436
0.00976225
0.0101063
0.0105979
0.0117588
0.0157853
3.72436
1.61729
0
0.00981492
0.0348937
0.0290933
0.0708669
0.11815
0.166431
0.216295
0.27791
0.357058
0.416284
0.446268
0.441976
0.418715
0.341591
0.00641792
0.00643512
0.00647939
0.00657186
0.00669379
0.0068463
0.0070434
0.00730478
0.0076329
0.00803348
0.00851815
0.00909496
0.00977303
0.0105622
0.0114614
0.012464
0.0135487
0.0146788
0.015793
0.0168357
0.0177534
0.0185298
0.0191887
0.0198635
0.0206907
0.021619
0.0223943
0.0228956
0.0230711
0.0235081
0.0242192
0.06092
0.0223302
0.111018
0.0524702
0.0274209
0.0799525
0.115342
0.202405
0.00715416
0.00715175
0.00716186
0.00718756
0.00723141
0.00729768
0.00738713
0.0075034
0.00764838
0.00782268
0.00802932
0.00826993
0.00854611
0.00886213
0.00922332
0.00963153
0.0101122
0.0107415
0.0115422
0.0125421
0.0135892
0.0151478
0.0165349
0.0977956
0.779246
0
0
0.00934177
0.0799176
0.092441
0.144564
0.195197
0.256117
0.341284
0.420619
0.466843
0.474072
0.458962
0.383745
0.00717537
0.00720537
0.00725874
0.00735682
0.00747707
0.00762687
0.00782155
0.00807486
0.00838681
0.00876115
0.00920445
0.00971806
0.0103013
0.0109523
0.0116624
0.012416
0.0131934
0.0139726
0.0147291
0.0154483
0.0161275
0.0167893
0.0174815
0.0183126
0.0193812
0.0206255
0.0219051
0.0231195
0.0242548
0.0253606
0.0266731
0.0286892
0.0330794
0.0449648
0.152426
0.118737
0.0471294
0.0619933
0.0986059
0.00794956
0.00794346
0.00794803
0.00796949
0.0080085
0.00807077
0.00815814
0.00827425
0.00842226
0.00860346
0.00882066
0.00907592
0.0093699
0.00970477
0.0100814
0.0105009
0.0109556
0.011425
0.0119321
0.0125489
0.0132997
0.0142768
0.0150571
0.0167514
0.089709
0.27894
0
0
0
0.0592586
0.13422
0.173801
0.233877
0.320522
0.411188
0.471846
0.492845
0.489408
0.421542
0.00797498
0.0080086
0.00806546
0.00816724
0.00828625
0.00843518
0.00862748
0.00887152
0.00916724
0.00951961
0.00993582
0.0104203
0.0109766
0.0116091
0.0123179
0.0130981
0.013941
0.0148325
0.0157504
0.016672
0.0175759
0.018456
0.0193366
0.0203134
0.0215103
0.0229326
0.0244747
0.0260244
0.0275157
0.0288271
0.0297455
0.0301401
0.0304755
0.0316079
0.0350777
0.0523699
0.270236
3.19456
0.0216653
0.0087646
0.00874864
0.00874082
0.00874877
0.0087706
0.00881298
0.00887688
0.00896557
0.00908226
0.00922767
0.0094056
0.00961836
0.00986813
0.0101592
0.0104956
0.010883
0.0113244
0.0118504
0.0124989
0.0132753
0.0141579
0.0151067
0.0159642
0.0160875
0.0177609
0.0358093
0.207339
0
0
0
0.062158
0.153011
0.212573
0.301162
0.394562
0.464592
0.499217
0.50985
0.453555
0.00879899
0.00883953
0.00890168
0.00900786
0.00912598
0.00927466
0.0094651
0.00970128
0.00998301
0.0103151
0.0107046
0.0111541
0.0116664
0.0122442
0.0128868
0.0135872
0.0143359
0.0151178
0.0159136
0.0167056
0.0174829
0.0182515
0.0190466
0.0199535
0.0210731
0.0224201
0.0239352
0.0255718
0.0273428
0.029275
0.0313735
0.033684
0.0362145
0.0389484
0.0411356
0.0433533
0.0517875
0.277515
0.0643317
0.00961524
0.00959167
0.00957451
0.00957351
0.00958449
0.00961484
0.0096662
0.00974165
0.00984458
0.00997697
0.0101423
0.0103439
0.0105846
0.0108685
0.0111991
0.0115812
0.0120208
0.0125196
0.0130819
0.0137263
0.0144717
0.0153066
0.0161748
0.0168806
0.0169618
0.018218
0.0278669
0.185277
0
0
0
0.0779306
0.198124
0.2885
0.378343
0.450557
0.495304
0.52032
0.47847
0.0096566
0.00970314
0.00976914
0.00987912
0.00999781
0.0101469
0.0103353
0.010564
0.0108329
0.0111464
0.011511
0.01193
0.0124062
0.0129439
0.0135451
0.0142074
0.0149252
0.0156902
0.0164895
0.0173098
0.0181418
0.0189899
0.0198829
0.0208904
0.0220995
0.0235399
0.0251615
0.0269004
0.0287288
0.0306262
0.032512
0.0342493
0.0357961
0.0370961
0.038204
0.0386679
0.0388029
0.0388026
0.407307
0.0104986
0.0104667
0.0104392
0.0104277
0.0104263
0.010442
0.0104773
0.0105348
0.0106177
0.010728
0.0108694
0.0110451
0.0112581
0.0115125
0.0118128
0.0121643
0.0125725
0.0130443
0.0136056
0.0142678
0.0150208
0.0158318
0.0166351
0.017408
0.0179906
0.0181582
0.01916
0.0259176
0.198753
0
0
0
0.182643
0.294272
0.370741
0.437854
0.485805
0.522629
0.495749
0.0105481
0.0106014
0.0106712
0.0107846
0.0109051
0.0110546
0.0112407
0.0114626
0.0117196
0.0120162
0.012358
0.0127479
0.0131892
0.0136867
0.0142427
0.014856
0.0155231
0.0162366
0.0169875
0.017765
0.0185625
0.0193856
0.020261
0.0212439
0.0224073
0.0237803
0.0253306
0.0270149
0.0288284
0.0307888
0.0328978
0.0351347
0.0375053
0.0398721
0.0422828
0.0434434
0.0452619
0.0364527
0.0579668
0.0114195
0.0113793
0.0113421
0.0113207
0.011308
0.0113108
0.0113327
0.0113748
0.0114417
0.0115349
0.0116585
0.0118159
0.0120105
0.0122471
0.0125299
0.012864
0.0132564
0.0137104
0.0142382
0.0148466
0.0155351
0.016289
0.0170585
0.0177948
0.0185693
0.019285
0.0196792
0.0203001
0.0286164
0.258108
0
0
0.0416611
0.486915
0.388737
0.438302
0.480258
0.521645
0.507337
0.011477
0.0115373
0.0116108
0.0117271
0.01185
0.0120001
0.0121839
0.0123994
0.0126455
0.0129258
0.0132464
0.0136096
0.0140188
0.014479
0.0149943
0.015565
0.0161904
0.0168672
0.0175889
0.0183496
0.0191464
0.0199853
0.0208888
0.0219029
0.0230877
0.0244735
0.0260424
0.0277577
0.0296095
0.0316037
0.033724
0.0358888
0.0380412
0.0400019
0.0417485
0.0423282
0.0431635
0.0373897
0.0339125
0.0123798
0.0123312
0.0122842
0.0122528
0.0122282
0.0122178
0.0122255
0.0122524
0.0123025
0.0123776
0.0124817
0.0126184
0.0127914
0.0130049
0.0132637
0.0135728
0.0139391
0.014364
0.0148627
0.0154467
0.0161097
0.0168315
0.0175739
0.018293
0.0190328
0.0199192
0.0208729
0.0214097
0.0218564
0.0369413
0.552717
0
0
0.150622
0.586569
0.481399
0.498275
0.532639
0.514405
0.0124454
0.0125137
0.0125908
0.0127097
0.0128352
0.0129865
0.013168
0.0133771
0.0136129
0.0138785
0.0141792
0.0145174
0.0148964
0.0153223
0.0157986
0.0163277
0.016911
0.0175473
0.0182337
0.018966
0.0197427
0.0205707
0.0214711
0.0224829
0.0236527
0.0250116
0.026551
0.0282456
0.0300883
0.0320904
0.0342508
0.0365269
0.0388993
0.0411952
0.0433653
0.0443646
0.0450275
0.0404542
0.03239
0.0133832
0.0133259
0.0132688
0.0132272
0.013191
0.0131681
0.0131619
0.0131739
0.0132082
0.0132664
0.0133524
0.0134701
0.0136231
0.0138162
0.0140538
0.0143407
0.0146836
0.0150849
0.0155528
0.0160988
0.0167196
0.0173987
0.0181094
0.0188212
0.0195508
0.020404
0.021458
0.0227707
0.0231521
0.0234274
0.0849979
10.5051
0
0.0338428
0.19138
0.586474
0.581508
0.585072
0.51681
0.0134567
0.013533
0.0136142
0.0137354
0.013864
0.0140165
0.0141956
0.0143989
0.0146249
0.0148763
0.0151583
0.0154734
0.0158247
0.0162178
0.0166586
0.0171496
0.0176938
0.0182922
0.0189449
0.0196508
0.0204111
0.0212339
0.022139
0.0231584
0.024331
0.0256851
0.0272211
0.0289208
0.0307773
0.0327988
0.0349824
0.0372819
0.0396568
0.0419337
0.0440783
0.0451488
0.0458712
0.0423132
0.0335948
0.0144325
0.0143665
0.0142988
0.0142469
0.0141988
0.0141627
0.014143
0.0141402
0.0141586
0.0142001
0.0142681
0.0143671
0.0145001
0.0146716
0.0148865
0.0151496
0.015467
0.015842
0.0162788
0.0167913
0.0173774
0.0180196
0.0186975
0.0193906
0.0201131
0.0209402
0.0219292
0.0232372
0.0248335
0.0242127
0.0277592
0.298919
0
0
0.0939197
0.178996
0.307581
0.4462
0.39343
0.0145143
0.0145983
0.014684
0.0148076
0.0149394
0.015093
0.0152704
0.0154679
0.0156847
0.0159229
0.0161874
0.0164805
0.0168057
0.0171692
0.0175761
0.0180308
0.0185378
0.0190994
0.0197177
0.0203948
0.0211345
0.0219455
0.022846
0.0238622
0.0250262
0.0263646
0.0278824
0.029569
0.0314204
0.0334456
0.0356484
0.0380039
0.0404804
0.0429291
0.045336
0.0467346
0.0478043
0.0444593
0.0353849
0.0155311
0.0154561
0.0153774
0.0153151
0.0152549
0.0152054
0.0151722
0.0151546
0.0151572
0.0151822
0.0152325
0.0153126
0.015426
0.0155768
0.01577
0.0160099
0.016302
0.016651
0.0170577
0.0175354
0.0180851
0.0186902
0.0193351
0.0200062
0.0207153
0.0215211
0.0224906
0.0235947
0.0252565
0.0267157
0.0249883
0.044471
5.84462
0
0.14017
0.0298041
0.0866835
0.147225
0.157164
0.0156214
0.0157129
0.0158032
0.0159296
0.0160649
0.0162197
0.0163952
0.0165874
0.0167952
0.0170209
0.0172687
0.017542
0.0178433
0.0181787
0.0185544
0.0189748
0.0194459
0.0199723
0.0205579
0.0212069
0.0219243
0.0227202
0.0236126
0.0246261
0.0257851
0.0271129
0.0286188
0.0302996
0.0321535
0.0341904
0.0364165
0.0388141
0.0413446
0.0438726
0.0463941
0.0479882
0.0492739
0.0463595
0.0371693
0.0166826
0.016598
0.016508
0.016435
0.0163621
0.0162992
0.0162519
0.0162193
0.0162061
0.0162144
0.0162472
0.016309
0.0164028
0.016533
0.0167037
0.0169196
0.0171859
0.0175078
0.0178839
0.0183281
0.0188429
0.0194127
0.0200259
0.020673
0.0213657
0.0221479
0.0230961
0.0241554
0.0254204
0.0277644
0.0268326
0.0285639
0.315859
0
0
0.018673
0.0459863
0.0287665
0.0821779
0.0167812
0.0168804
0.0169751
0.0171047
0.0172437
0.0174
0.0175737
0.0177608
0.0179604
0.0181741
0.0184067
0.0186608
0.0189394
0.0192491
0.0195955
0.0199847
0.0204224
0.0209152
0.0214684
0.0220881
0.0227818
0.0235603
0.0244415
0.0254466
0.0265958
0.0279098
0.029401
0.0310713
0.0329222
0.0349654
0.0372104
0.0396487
0.0422534
0.0449127
0.0476438
0.0495543
0.0511734
0.0486147
0.0390537
0.0178905
0.0177956
0.0176942
0.0176099
0.0175242
0.0174474
0.0173857
0.0173377
0.0173089
0.0173006
0.0173158
0.0173593
0.0174332
0.0175422
0.0176905
0.0178826
0.0181231
0.0184177
0.0187633
0.0191733
0.0196529
0.0201879
0.0207691
0.0213902
0.0220629
0.0228228
0.0237292
0.0248007
0.025896
0.0277062
0.0293124
0.0276998
0.0468237
2.83827
0
0
0
0.019062
0
0.0179974
0.0181037
0.0182031
0.0183365
0.0184797
0.0186372
0.0188094
0.0189916
0.0191833
0.0193858
0.019604
0.0198407
0.0200987
0.020384
0.0207037
0.021063
0.0214695
0.0219298
0.0224516
0.023042
0.0237105
0.0244696
0.0253371
0.0263313
0.0274693
0.0287703
0.0302478
0.031908
0.0337569
0.0358073
0.0380729
0.0405517
0.0432254
0.0460065
0.0489371
0.0511825
0.0531873
0.0511102
0.0411524
0.0191585
0.0190529
0.0189398
0.0188436
0.0187449
0.0186535
0.0185773
0.0185137
0.0184684
0.018443
0.0184404
0.0184649
0.0185193
0.0186075
0.0187335
0.0189017
0.0191159
0.0193826
0.0196979
0.0200726
0.0205162
0.0210168
0.0215658
0.022159
0.0228075
0.0235434
0.0244063
0.0254472
0.0265581
0.0278516
0.030171
0.0297721
0.0309048
1.42849
1.58961
0
0
0
0
0.019274
0.0193868
0.0194911
0.0196294
0.0197762
0.0199354
0.0201059
0.0202839
0.0204681
0.0206603
0.0208649
0.0210852
0.0213239
0.0215873
0.0218819
0.0222139
0.022591
0.0230207
0.0235119
0.0240737
0.0247162
0.0254527
0.0263021
0.0272831
0.0284098
0.0296964
0.0311588
0.0328074
0.0346524
0.0367083
0.0389932
0.0415126
0.0442613
0.0471815
0.0503473
0.0530019
0.055491
0.0539292
0.0435386
0.0204903
0.0203738
0.020248
0.0201402
0.0200274
0.0199215
0.0198299
0.0197503
0.0196882
0.0196455
0.0196248
0.0196308
0.0196654
0.0197325
0.0198358
0.0199795
0.0201675
0.0204052
0.0206907
0.0210303
0.0214374
0.0219033
0.0224191
0.0229824
0.0236031
0.0243107
0.025135
0.0261137
0.0272355
0.0283654
0.0301573
0.0317613
0.0305069
0.0400631
0.324464
5.56812
0
0
0
0.020615
0.0207341
0.0208434
0.020987
0.0211376
0.0212985
0.0214678
0.0216415
0.0218188
0.0220011
0.022193
0.0223983
0.0226194
0.0228625
0.0231343
0.0234408
0.0237904
0.0241915
0.0246533
0.025186
0.025802
0.026516
0.027347
0.0283119
0.0294229
0.0306939
0.0321411
0.0337784
0.0356189
0.0376808
0.0399854
0.0425479
0.0453738
0.0484415
0.0518607
0.0549779
0.0580592
0.0571002
0.0462516
0.0218901
0.0217623
0.0216237
0.0215035
0.0213766
0.0212552
0.021148
0.0210517
0.0209724
0.020912
0.0208727
0.0208594
0.0208736
0.0209189
0.0209994
0.0211184
0.02128
0.0214888
0.0217451
0.0220512
0.0224219
0.0228528
0.0233344
0.0238652
0.0244547
0.0251288
0.0259143
0.0268297
0.0279005
0.0290171
0.0303248
0.0323148
0.0322381
0.0307688
0.0461443
0.537733
0.500077
0
0
0.0220244
0.02215
0.0222643
0.0224132
0.0225683
0.0227309
0.0228992
0.0230692
0.02324
0.023413
0.0235932
0.0237841
0.0239891
0.0242134
0.0244643
0.0247476
0.0250716
0.0254454
0.0258794
0.0263844
0.0269734
0.0276629
0.028473
0.02942
0.0305141
0.0317693
0.033201
0.0348262
0.0366615
0.0387284
0.0410527
0.0436595
0.0465679
0.0497966
0.0534977
0.0571463
0.0609656
0.0607198
0.0493374
0.0233625
0.0232226
0.023071
0.0229382
0.0227964
0.0226592
0.0225359
0.0224222
0.0223251
0.0222465
0.0221881
0.0221551
0.0221487
0.0221725
0.0222298
0.022324
0.022459
0.0226389
0.0228648
0.0231369
0.0234716
0.0238678
0.0243147
0.0248113
0.0253667
0.0260036
0.0267459
0.0276035
0.0285945
0.0296772
0.0307747
0.0323337
0.0332907
0.0309054
0.0295515
0.0369963
0.0529019
6.83823
0
0.0235068
0.0236392
0.0237582
0.0239132
0.0240731
0.0242376
0.0244052
0.0245716
0.024736
0.0249001
0.0250695
0.0252479
0.0254379
0.0256452
0.0258767
0.0261387
0.0264392
0.0267873
0.0271943
0.0276719
0.0282349
0.0288991
0.0296862
0.0306133
0.031691
0.0329294
0.0343451
0.0359572
0.0377868
0.0398583
0.0422031
0.0448564
0.0478534
0.0512536
0.0552644
0.0595216
0.0642658
0.0649266
0.0528783
0.0249123
0.0247598
0.0245944
0.024449
0.0242915
0.0241378
0.0239978
0.023866
0.0237506
0.0236531
0.0235754
0.0235225
0.0234952
0.0234969
0.0235304
0.0235995
0.0237072
0.0238574
0.0240527
0.0242909
0.0245895
0.0249507
0.0253626
0.0258243
0.0263432
0.0269399
0.0276345
0.0284341
0.029344
0.0303449
0.0313427
0.0324942
0.0333758
0.0317985
0.029198
0.0282615
0.0239539
2.27357
0
0.0250668
0.0252067
0.0253309
0.025492
0.025657
0.0258236
0.0259904
0.0261536
0.0263123
0.0264683
0.0266269
0.0267933
0.0269697
0.0271616
0.0273759
0.0276181
0.0278966
0.0282213
0.028603
0.0290544
0.0295905
0.0302299
0.0309942
0.0319011
0.0329594
0.0341797
0.035579
0.0371782
0.039002
0.0410788
0.043445
0.0461477
0.0492434
0.0528273
0.0571727
0.0621187
0.0680318
0.0698798
0.056965
0.0265446
0.0263789
0.0261994
0.0260407
0.0258668
0.0256961
0.0255385
0.0253884
0.0252538
0.0251369
0.025039
0.0249654
0.0249166
0.0248957
0.0249056
0.024949
0.0250292
0.0251498
0.0253142
0.0255178
0.0257798
0.0261056
0.0264816
0.0269067
0.0273873
0.0279415
0.0285857
0.0293239
0.0301555
0.0310538
0.0319455
0.0328496
0.0333198
0.0321738
0.030406
0.0278391
0.021963
1.74476
0
0.0267102
0.026858
0.0269872
0.0271552
0.0273256
0.0274942
0.0276609
0.0278209
0.0279739
0.0281221
0.0282714
0.0284267
0.0285908
0.0287685
0.0289666
0.0291911
0.0294498
0.0297525
0.0301104
0.0305367
0.0310469
0.0316609
0.0324015
0.0332865
0.0343251
0.0355269
0.0369104
0.0384969
0.0403145
0.0423968
0.044785
0.0475402
0.0507419
0.0545166
0.0592272
0.0649545
0.0723444
0.075838
0.0617116
0.0282647
0.0280852
0.027891
0.0277182
0.0275279
0.0273391
0.0271634
0.0269941
0.0268402
0.0267032
0.0265847
0.0264899
0.0264195
0.0263753
0.0263607
0.0263781
0.0264302
0.0265206
0.0266533
0.0268217
0.0270465
0.027336
0.0276752
0.0280623
0.0285027
0.0290121
0.0296036
0.0302771
0.0310291
0.0318212
0.0325833
0.033312
0.0334669
0.0323302
0.0314371
0.0281739
0.0222889
1.69329
0
0.0284427
0.0285983
0.0287331
0.0289081
0.0290842
0.0292552
0.029422
0.0295796
0.0297276
0.0298685
0.0300084
0.0301531
0.0303055
0.0304707
0.030655
0.0308629
0.0311032
0.0313855
0.0317212
0.0321232
0.0326081
0.0331967
0.0339132
0.0347764
0.0357954
0.0369799
0.0383465
0.0399201
0.0417321
0.0438195
0.0462317
0.0490408
0.052351
0.0563253
0.0614201
0.0680183
0.0772527
0.0831689
0.0672831
0.0300786
0.0298845
0.0296751
0.0294871
0.0292794
0.029072
0.0288778
0.0286885
0.0285142
0.0283569
0.028217
0.0281007
0.0280078
0.0279401
0.0279009
0.0278915
0.0279153
0.0279749
0.0280752
0.0282078
0.0283936
0.0286466
0.0289488
0.0292972
0.0296952
0.0301573
0.0306936
0.0313001
0.0319694
0.0326555
0.0332831
0.0338576
0.0338178
0.0325992
0.0321619
0.0287278
0.0229436
1.68648
0
0.03027
0.0304339
0.0305743
0.0307567
0.0309389
0.0311129
0.0312802
0.0314355
0.0315789
0.0317127
0.0318441
0.0319795
0.0321216
0.0322749
0.0324457
0.0326392
0.0328631
0.033127
0.0334417
0.0338212
0.0342818
0.0348454
0.0355375
0.0363783
0.0373765
0.0385433
0.0398936
0.041455
0.0432613
0.0453545
0.047792
0.0506565
0.0540749
0.0582582
0.0637639
0.0713216
0.082839
0.0924802
0.0738639
0.0319926
0.0317824
0.0315571
0.0313537
0.0311276
0.0309008
0.0306871
0.0304776
0.0302822
0.0301038
0.029942
0.0298035
0.0296875
0.0295962
0.0295318
0.0294954
0.0294903
0.0295184
0.0295855
0.0296825
0.0298283
0.030042
0.0303064
0.0306147
0.030969
0.0313821
0.0318615
0.0323994
0.0329833
0.0335639
0.0340655
0.0344923
0.0343145
0.03306
0.032849
0.0294124
0.023552
0.510957
0
0.0321978
0.0323707
0.032517
0.0327071
0.0328957
0.0330735
0.0332418
0.0333958
0.0335349
0.0336623
0.0337855
0.0339122
0.0340451
0.0341879
0.0343463
0.0345265
0.0347356
0.034983
0.035278
0.0356353
0.0360724
0.0366122
0.0372814
0.0381005
0.0390788
0.0402269
0.0415616
0.0431106
0.0449115
0.0470116
0.0494742
0.0523961
0.0559253
0.0603237
0.0662469
0.0748259
0.0891311
0.104812
0.0816767
0.0340126
0.0337854
0.0335429
0.0333236
0.033078
0.0328314
0.0325979
0.0323667
0.03215
0.0319497
0.0317656
0.0316044
0.0314651
0.0313493
0.0312592
0.0311956
0.0311613
0.0311577
0.0311906
0.0312525
0.0313592
0.0315322
0.0317573
0.0320247
0.0323333
0.032695
0.0331149
0.0335826
0.0340807
0.0345582
0.034941
0.0352277
0.0349346
0.0336599
0.0335781
0.0302862
0.0238515
0.120228
12.7713
0.0342319
0.0344142
0.0345669
0.0347655
0.0349613
0.0351437
0.0353139
0.0354669
0.0356024
0.035724
0.0358401
0.0359589
0.0360828
0.0362156
0.0363638
0.0365322
0.0367279
0.0369588
0.0372359
0.0375728
0.0379877
0.0385038
0.0391499
0.0399468
0.0409052
0.0420355
0.0433548
0.0448923
0.0466886
0.0487956
0.0512844
0.0542638
0.0579056
0.0625183
0.068866
0.0784953
0.0960183
0.122159
0.0909103
0.0361441
0.0358996
0.0356388
0.0354031
0.0351373
0.0348693
0.0346156
0.0343623
0.0341238
0.0339009
0.033694
0.0335097
0.0333469
0.0332062
0.0330903
0.0329993
0.0329352
0.0329001
0.0328981
0.0329243
0.0329916
0.033124
0.0333097
0.0335359
0.0337977
0.0341053
0.0344638
0.0348593
0.0352721
0.0356486
0.0359156
0.0360708
0.0356721
0.0343572
0.0345395
0.0299867
0.0249793
0.0520691
5.12626
0.0363786
0.0365706
0.0367304
0.0369383
0.0371424
0.0373302
0.0375035
0.0376564
0.037789
0.0379057
0.0380155
0.0381272
0.0382433
0.0383668
0.0385054
0.0386635
0.0388472
0.0390638
0.0393236
0.0396411
0.0400348
0.0405277
0.0411511
0.0419266
0.0428654
0.0439786
0.0452835
0.04681
0.0486022
0.0507161
0.0532312
0.0562663
0.0600196
0.0648409
0.0715895
0.0822353
0.103224
0.149032
0.10156
0.0383936
0.0381311
0.0378519
0.0375984
0.0373118
0.0370224
0.036747
0.0364711
0.0362101
0.0359647
0.0357343
0.0355266
0.0353392
0.0351733
0.0350313
0.0349123
0.0348186
0.0347516
0.034715
0.034705
0.0347325
0.0348241
0.0349717
0.0351563
0.0353708
0.0356237
0.0359194
0.0362415
0.0365695
0.0368461
0.0369984
0.0370302
0.0365259
0.0351371
0.035513
0.0297476
0.0268344
0.0507549
4.55974
0.0386435
0.0388454
0.0390136
0.0392329
0.0394466
0.0396407
0.0398183
0.0399722
0.040103
0.0402152
0.0403193
0.0404249
0.0405345
0.0406501
0.04078
0.0409291
0.0411015
0.0413044
0.0415484
0.0418475
0.04222
0.042691
0.0432928
0.0440476
0.0449681
0.0460638
0.0473547
0.0488706
0.0506587
0.0527795
0.0553193
0.0584074
0.0622665
0.0672823
0.074398
0.0859418
0.110083
0.198104
0.11288
0.0407675
0.0404863
0.0401883
0.0399169
0.0396084
0.0392965
0.0389988
0.0386999
0.0384155
0.038147
0.0378925
0.037661
0.0374492
0.0372582
0.0370897
0.0369433
0.0368197
0.0367205
0.0366494
0.0366031
0.0365904
0.0366413
0.0367509
0.0368951
0.037062
0.0372593
0.0374916
0.0377404
0.0379842
0.0381625
0.038202
0.0381145
0.0375048
0.036024
0.0364895
0.0302195
0.0279824
0.0521471
4.30531
0.0410324
0.0412451
0.0414236
0.0416564
0.0418811
0.0420835
0.0422666
0.0424227
0.0425524
0.0426613
0.0427611
0.0428609
0.0429639
0.0430736
0.0431968
0.0433382
0.0435
0.0436903
0.0439195
0.0442012
0.0445531
0.0450031
0.0455837
0.046318
0.0472192
0.0482992
0.0495764
0.0510825
0.0528663
0.0549931
0.0575553
0.0606915
0.0646469
0.0698322
0.0772431
0.0894615
0.115706
0.300874
0.122659
0.0432721
0.0429728
0.0426555
0.0423657
0.0420343
0.0416992
0.0413788
0.0410555
0.0407474
0.0404554
0.0401768
0.0399213
0.0396849
0.0394685
0.0392737
0.039099
0.0389458
0.0388151
0.0387099
0.0386273
0.0385742
0.0385848
0.0386573
0.0387618
0.038882
0.039024
0.0391932
0.0393695
0.0395294
0.0396122
0.0395424
0.0393362
0.0386267
0.037053
0.0375595
0.0310461
0.02875
0.0527206
4.03691
0.0435522
0.043777
0.0439679
0.0442167
0.0444546
0.0446666
0.0448569
0.0450167
0.0451465
0.0452532
0.0453488
0.045445
0.0455432
0.0456471
0.0457645
0.0458988
0.0460524
0.0462318
0.0464465
0.0467104
0.0470429
0.0474722
0.0480321
0.048747
0.0496292
0.0506935
0.0519571
0.0534531
0.0552323
0.057363
0.0599432
0.0631182
0.0671547
0.0724727
0.0800875
0.0926587
0.119193
0.256778
0.127763
0.0459156
0.0455975
0.0452613
0.0449527
0.0445981
0.0442384
0.0438946
0.0435469
0.0432142
0.0428984
0.0425952
0.0423154
0.0420543
0.0418122
0.0415912
0.0413891
0.0412067
0.0410447
0.0409054
0.0407867
0.0406932
0.0406639
0.0407021
0.040769
0.0408438
0.0409309
0.0410382
0.0411429
0.04122
0.0412111
0.0410371
0.0407138
0.039917
0.0382545
0.0387423
0.032169
0.0298299
0.0533477
3.82272
0.0462115
0.0464496
0.0466556
0.0469225
0.0471756
0.0473992
0.0475981
0.0477631
0.0478946
0.0480004
0.0480938
0.0481867
0.0482812
0.0483807
0.0484939
0.0486224
0.0487683
0.0489373
0.049138
0.0493848
0.0496986
0.0501074
0.0506467
0.0513414
0.0522062
0.0532549
0.0545058
0.0559916
0.0577647
0.0598951
0.0624861
0.0656889
0.069783
0.0751856
0.0828785
0.0954126
0.120301
0.189412
0.127304
0.0487075
0.0483706
0.0480149
0.0476865
0.0473075
0.0469231
0.0465547
0.0461812
0.045824
0.0454836
0.0451555
0.0448513
0.0445656
0.0442982
0.0440514
0.043822
0.0436107
0.0434176
0.0432449
0.0430918
0.0429589
0.042891
0.042897
0.0429295
0.0429614
0.0429959
0.0430424
0.0430776
0.0430736
0.0429775
0.0427035
0.0422684
0.0414011
0.0396488
0.0399511
0.0340898
0.0303662
0.050359
3.3472
0.0490207
0.049274
0.0494965
0.0497841
0.050054
0.0502905
0.0505
0.0506716
0.0508064
0.050913
0.0510058
0.051097
0.0511892
0.0512858
0.0513953
0.0515206
0.0516593
0.0518184
0.0520062
0.0522365
0.0525318
0.0529206
0.0534388
0.0541138
0.054961
0.055995
0.057233
0.0587069
0.06047
0.0625955
0.0651879
0.0684021
0.07252
0.0779433
0.0855781
0.0976756
0.119529
0.15837
0.123459
0.0516597
0.0513023
0.0509261
0.0505775
0.0501732
0.0497619
0.0493687
0.0489687
0.0485856
0.0482198
0.0478669
0.0475381
0.0472276
0.0469353
0.046663
0.0464072
0.046168
0.0459453
0.0457409
0.0455545
0.0453828
0.0452779
0.0452561
0.0452587
0.0452508
0.0452345
0.0452227
0.0451918
0.0451096
0.0449309
0.0445636
0.0440184
0.0431066
0.0412404
0.0413006
0.0364667
0.0308175
0.0466359
2.83792
0.0519927
0.0522637
0.0525033
0.052812
0.0531
0.0533511
0.0535717
0.0537522
0.0538927
0.0540019
0.0540968
0.0541882
0.0542784
0.0543736
0.0544824
0.0546042
0.0547384
0.0548884
0.0550629
0.0552769
0.0555539
0.0559224
0.0564202
0.0570764
0.0579059
0.0589239
0.0601471
0.0616072
0.0633569
0.0654709
0.0680527
0.0712581
0.0753595
0.0807304
0.0881721
0.0994877
0.117783
0.141179
0.118846
0.0547866
0.0544061
0.0540073
0.0536365
0.0532047
0.0527669
0.0523472
0.0519195
0.0515099
0.0511185
0.0507397
0.050386
0.050051
0.049734
0.049437
0.0491555
0.0488892
0.0486383
0.0484032
0.0481854
0.0479772
0.0478386
0.0477942
0.0477726
0.0477299
0.0476668
0.0476005
0.0475076
0.0473518
0.047095
0.0466429
0.0459846
0.0450532
0.0430432
0.0428964
0.0387298
0.0319926
0.0458996
2.55905
0.0551426
0.0554343
0.0556898
0.0560192
0.0563261
0.0565917
0.0568249
0.0570162
0.0571637
0.0572786
0.0573779
0.0574717
0.0575638
0.0576592
0.0577682
0.0578886
0.0580187
0.05816
0.0583218
0.0585212
0.0587789
0.0591254
0.059602
0.0602382
0.06105
0.0620519
0.0632588
0.0647022
0.0664336
0.0685259
0.0710843
0.0742578
0.0783007
0.0835439
0.0906681
0.100955
0.115802
0.130538
0.114736
0.0581031
0.0576958
0.0572715
0.0568763
0.0564154
0.0559482
0.0555007
0.0550447
0.0546075
0.05419
0.0537847
0.053406
0.0530468
0.0527055
0.0523842
0.0520779
0.0517864
0.0515089
0.0512453
0.0509989
0.0507566
0.0505885
0.0505281
0.0504898
0.0504182
0.0503133
0.0501977
0.0500491
0.0498261
0.0494962
0.0489706
0.0481977
0.0472469
0.0451178
0.044748
0.0408335
0.0338468
0.0465056
2.37767
0.0584869
0.0588019
0.0590714
0.0594194
0.0597445
0.0600252
0.0602717
0.0604743
0.0606317
0.0607548
0.0608617
0.0609618
0.0610565
0.0611565
0.0612679
0.0613891
0.0615146
0.0616483
0.0617984
0.0619813
0.0622176
0.0625434
0.0629976
0.0636116
0.0644048
0.065389
0.0665783
0.0680015
0.0697078
0.0717708
0.0742907
0.0774076
0.0813504
0.0864015
0.0931008
0.102227
0.114061
0.123656
0.111572
0.0616265
0.0611879
0.0607336
0.0603106
0.0598179
0.0593199
0.0588431
0.0583564
0.0578915
0.0574464
0.0570139
0.05661
0.0562261
0.0558611
0.0555165
0.055187
0.0548719
0.05457
0.0542806
0.0540089
0.0537365
0.0535437
0.0534757
0.0534296
0.0533371
0.0531978
0.0530404
0.0528441
0.0525632
0.0521669
0.0515788
0.0506973
0.0497069
0.0475219
0.0467844
0.0432156
0.0361741
0.0445639
2.05451
0.0620409
0.0623812
0.0626632
0.0630272
0.0633693
0.0636649
0.0639252
0.0641407
0.0643088
0.0644425
0.0645609
0.0646708
0.064774
0.0648811
0.064998
0.0651208
0.0652437
0.0653705
0.0655083
0.065673
0.0658887
0.0661892
0.0666188
0.0672115
0.0679836
0.0689492
0.0701185
0.0715168
0.073192
0.0752154
0.0776785
0.0807126
0.0845138
0.0893121
0.0955046
0.103432
0.112775
0.119146
0.109356
0.065372
0.0648971
0.0644086
0.0639551
0.0634273
0.0628953
0.0623879
0.0618698
0.0613745
0.0609009
0.0604405
0.0600114
0.0596032
0.0592144
0.0588473
0.058496
0.058159
0.0578352
0.0575235
0.0572306
0.0569326
0.0567221
0.0566563
0.0566146
0.0565119
0.0563467
0.056157
0.0559236
0.055597
0.0551435
0.0545042
0.0535296
0.0524724
0.050278
0.0491115
0.0460865
0.0388214
0.0407295
1.127
0.0658193
0.0661851
0.0664798
0.0668563
0.0672146
0.0675254
0.0677999
0.0680285
0.0682089
0.0683561
0.0684892
0.0686126
0.0687306
0.0688498
0.0689768
0.0691037
0.0692265
0.0693465
0.0694716
0.0696171
0.0698082
0.0700827
0.0704859
0.0710531
0.071803
0.0727473
0.0738931
0.0752613
0.0768984
0.0788686
0.0812587
0.0841837
0.0878055
0.092304
0.0979383
0.10471
0.112053
0.116334
0.108039
0.069352
0.0688381
0.0683119
0.0678237
0.0672574
0.0666902
0.0661492
0.065597
0.0650707
0.0645682
0.0640797