/*--------------------------------*- C++ -*----------------------------------*\
| =========                 |                                                 |
| \\      /  F ield         | OpenFOAM: The Open Source CFD Toolbox           |
|  \\    /   O peration     | Version:  2312                                  |
|   \\  /    A nd           | Website:  www.openfoam.com                      |
|    \\/     M anipulation  |                                                 |
\*---------------------------------------------------------------------------*/
FoamFile
{
    version     2.0;
    format      ascii;
    arch        "LSB;label=32;scalar=64";
    class       volScalarField;
    location    "50";
    object      turbulenceProperties:nuEff;
}
// * * * * * * * * * * * * * * * * * * * * * * * * * * * * * * * * * * * * * //

dimensions      [0 2 -1 0 0 0 0];

internalField   nonuniform List<scalar> 
10720
(
2.62384e-05
2.87136e-05
3.2052e-05
3.64298e-05
4.22349e-05
4.99441e-05
6.02605e-05
7.36473e-05
9.09661e-05
0.000112956
0.000140642
0.000176197
0.00022272
0.000286699
0.000376276
0.000506816
0.000703997
0.00101934
0.0015411
0.00246655
0.00423194
0.00818205
0.0162954
0.0487646
0.0651578
0.0611843
0.0593677
0.0540953
0.0501066
0.0486085
0.0448533
0.0405951
0.0459697
0.0309322
0.0321925
0.038826
0.0404175
0.038954
0.0411981
2.41588e-05
2.23523e-05
2.06134e-05
1.90129e-05
1.7607e-05
1.66706e-05
1.80537e-05
2.04479e-05
2.41689e-05
2.99535e-05
3.89459e-05
5.26235e-05
7.24242e-05
9.97206e-05
0.000135832
0.000183923
0.00025052
0.000347643
0.000497978
0.000738543
0.00114446
0.0018559
0.00323039
0.00568366
0.011314
0.0226748
0.0503122
0.0863046
0.107973
0.115692
0.117819
0.118407
0.118272
0.117552
0.116336
0.11476
0.112446
0.109569
0.100253
1.55118e-05
1.54104e-05
1.53112e-05
1.52166e-05
1.51075e-05
1.4997e-05
1.48939e-05
1.47872e-05
1.46933e-05
1.46118e-05
1.4543e-05
1.45001e-05
1.45329e-05
1.44889e-05
1.54845e-05
1.91599e-05
3.37182e-05
8.06877e-05
0.000175308
0.000366236
0.000748231
0.00202903
0.00404794
0.0158634
0.0388913
0.0712915
0.112031
0.149034
0.176146
0.192652
0.200179
0.197788
0.18131
0.141222
0.159512
0.189503
0.201062
0.200574
0.179163
1.55919e-05
1.56936e-05
1.57809e-05
1.58887e-05
1.59892e-05
1.60877e-05
1.6007e-05
1.58656e-05
1.56889e-05
1.54903e-05
1.52776e-05
1.50522e-05
1.48137e-05
1.45613e-05
1.42785e-05
1.39646e-05
1.35865e-05
1.31416e-05
1.25844e-05
1.19212e-05
1.11736e-05
1.04852e-05
1.01445e-05
1.00367e-05
3.138e-05
0.00026159
0.00162599
0.00805763
0.02095
0.0372528
0.0524528
0.0630113
0.0688539
0.0719348
0.0738565
0.0755889
0.0771196
0.0808091
0.0834247
1.62239e-05
1.62392e-05
1.62533e-05
1.62688e-05
1.62878e-05
1.63087e-05
1.63322e-05
1.63593e-05
1.63905e-05
1.6426e-05
1.64674e-05
1.65159e-05
1.65715e-05
1.66461e-05
1.66916e-05
1.69778e-05
1.6432e-05
1.5885e-05
1.10714e-05
1.02293e-05
0.000147571
5.06769e-05
8.01898e-05
0.000768846
0.0061315
0.0212026
0.0540186
0.112012
0.179294
0.233891
0.273071
0.293433
0.293874
0.295321
0.34478
0.374083
0.357651
0.310199
0.257778
1.62064e-05
1.61887e-05
1.61721e-05
1.61584e-05
1.6154e-05
1.61466e-05
1.61562e-05
1.61724e-05
1.61918e-05
1.6213e-05
1.62353e-05
1.62616e-05
1.62915e-05
1.6324e-05
1.63603e-05
1.64003e-05
1.64456e-05
1.64971e-05
1.65582e-05
1.66315e-05
1.67225e-05
1.68426e-05
1.6984e-05
1.71768e-05
1.72365e-05
1.69807e-05
1.57998e-05
1.60879e-05
0.000294372
0.00149491
0.00472919
0.0104765
0.0182896
0.0272446
0.036323
0.0448192
0.0519998
0.0588287
0.0671098
1.6114e-05
1.61129e-05
1.61126e-05
1.6112e-05
1.61108e-05
1.61104e-05
1.61116e-05
1.61142e-05
1.61194e-05
1.61273e-05
1.61384e-05
1.61536e-05
1.61737e-05
1.62001e-05
1.6233e-05
1.62841e-05
1.63151e-05
1.63723e-05
1.54235e-05
1.45449e-05
1.00574e-05
1.05662e-05
1.04167e-05
0.000152449
0.00133044
0.000956184
0.00713117
0.0335983
0.0992825
0.191581
0.275913
0.331355
0.361055
0.406382
0.483015
0.51558
0.480732
0.401369
0.310756
1.61106e-05
1.61099e-05
1.6109e-05
1.61093e-05
1.6116e-05
1.61204e-05
1.61196e-05
1.6117e-05
1.6114e-05
1.61117e-05
1.61102e-05
1.61092e-05
1.61087e-05
1.61091e-05
1.61102e-05
1.6112e-05
1.61145e-05
1.61177e-05
1.61214e-05
1.61256e-05
1.61301e-05
1.61345e-05
1.61392e-05
1.61446e-05
1.61517e-05
1.61734e-05
1.61536e-05
1.6379e-05
1.57216e-05
1.6932e-05
1.0041e-05
1.64964e-05
0.000422604
0.00161749
0.00418064
0.00874475
0.0155181
0.0248921
0.0416731
1.61251e-05
1.61257e-05
1.61263e-05
1.61262e-05
1.61258e-05
1.61258e-05
1.61267e-05
1.61288e-05
1.61318e-05
1.6136e-05
1.61414e-05
1.61482e-05
1.61567e-05
1.61674e-05
1.61809e-05
1.61984e-05
1.62221e-05
1.62511e-05
1.63179e-05
1.64548e-05
1.55418e-05
1.23441e-05
1e-05
1e-05
1e-05
0.00020081
0.00156043
0.000673231
0.0187352
0.0898706
0.204805
0.307051
0.380972
0.473501
0.580877
0.622072
0.576448
0.476097
0.35165
1.61211e-05
1.61178e-05
1.6116e-05
1.61132e-05
1.61165e-05
1.6118e-05
1.6118e-05
1.61181e-05
1.61187e-05
1.61201e-05
1.61219e-05
1.61241e-05
1.6127e-05
1.61303e-05
1.61343e-05
1.61388e-05
1.6144e-05
1.61499e-05
1.61566e-05
1.6164e-05
1.61723e-05
1.61815e-05
1.61918e-05
1.62036e-05
1.62182e-05
1.62337e-05
1.62603e-05
1.62569e-05
1.63666e-05
1.61455e-05
1.59898e-05
1.03688e-05
8.91132e-05
1.00974e-05
1.09714e-05
2.45972e-05
0.000811627
0.00209086
0.0141592
1.61188e-05
1.61184e-05
1.61184e-05
1.61181e-05
1.61177e-05
1.61181e-05
1.61192e-05
1.61211e-05
1.61239e-05
1.61274e-05
1.61317e-05
1.61369e-05
1.61431e-05
1.61505e-05
1.61596e-05
1.61708e-05
1.61866e-05
1.62018e-05
1.62329e-05
1.62471e-05
1.65944e-05
1.6254e-05
1.56281e-05
1.00267e-05
1.00001e-05
1e-05
1e-05
0.000137625
0.00462205
0.0147667
0.0928982
0.219182
0.345911
0.493295
0.637681
0.694248
0.646359
0.535334
0.386737
1.6116e-05
1.61129e-05
1.61116e-05
1.6109e-05
1.61118e-05
1.61133e-05
1.61132e-05
1.61129e-05
1.61133e-05
1.61143e-05
1.61159e-05
1.61176e-05
1.61195e-05
1.61214e-05
1.61235e-05
1.61258e-05
1.61282e-05
1.61308e-05
1.61337e-05
1.61367e-05
1.61401e-05
1.61439e-05
1.61479e-05
1.61525e-05
1.61575e-05
1.61631e-05
1.61688e-05
1.61753e-05
1.61826e-05
1.6185e-05
1.62246e-05
1.61741e-05
1.51676e-05
1.27022e-05
1.01168e-05
1.02823e-05
0.000190749
0.000544696
0.00237053
1.61165e-05
1.61158e-05
1.61156e-05
1.6115e-05
1.61145e-05
1.61145e-05
1.61153e-05
1.61166e-05
1.61185e-05
1.61209e-05
1.61235e-05
1.61263e-05
1.61293e-05
1.61322e-05
1.6135e-05
1.61381e-05
1.61422e-05
1.61461e-05
1.61537e-05
1.61477e-05
1.62255e-05
1.6283e-05
1.7078e-05
1.61831e-05
1.00465e-05
1.0002e-05
1e-05
1e-05
1e-05
0.00378216
0.0155448
0.100782
0.255176
0.459393
0.648769
0.729515
0.689235
0.578027
0.416674
1.61147e-05
1.61115e-05
1.61099e-05
1.61069e-05
1.61095e-05
1.61108e-05
1.61106e-05
1.61105e-05
1.61112e-05
1.61125e-05
1.61139e-05
1.61154e-05
1.61171e-05
1.61187e-05
1.61207e-05
1.61228e-05
1.61253e-05
1.6128e-05
1.61312e-05
1.61348e-05
1.61388e-05
1.61433e-05
1.61485e-05
1.61544e-05
1.61613e-05
1.61695e-05
1.61791e-05
1.61905e-05
1.62035e-05
1.62217e-05
1.62248e-05
1.62971e-05
1.62126e-05
1.55176e-05
1.39206e-05
1.11242e-05
1.0013e-05
1e-05
6.71633e-05
1.61141e-05
1.61133e-05
1.61129e-05
1.6112e-05
1.61114e-05
1.61114e-05
1.61122e-05
1.61136e-05
1.61157e-05
1.61183e-05
1.61213e-05
1.61248e-05
1.61287e-05
1.6133e-05
1.6138e-05
1.61436e-05
1.61501e-05
1.61579e-05
1.61662e-05
1.61711e-05
1.6184e-05
1.6174e-05
1.62395e-05
1.76292e-05
1.65105e-05
1.07856e-05
1.00069e-05
1e-05
1e-05
1e-05
0.00397955
0.0162924
0.134596
0.37065
0.607786
0.722743
0.70142
0.601177
0.438875
1.61131e-05
1.61101e-05
1.6108e-05
1.6105e-05
1.61073e-05
1.61086e-05
1.61085e-05
1.61085e-05
1.61093e-05
1.61103e-05
1.61115e-05
1.61127e-05
1.6114e-05
1.61153e-05
1.61168e-05
1.61184e-05
1.61203e-05
1.61223e-05
1.61246e-05
1.61272e-05
1.613e-05
1.61332e-05
1.61368e-05
1.61408e-05
1.61452e-05
1.61502e-05
1.61559e-05
1.61622e-05
1.61693e-05
1.61771e-05
1.61855e-05
1.61946e-05
1.62196e-05
1.61887e-05
1.65422e-05
1.62342e-05
1.3548e-05
1.00193e-05
1.05193e-05
1.61121e-05
1.61113e-05
1.61106e-05
1.61095e-05
1.61086e-05
1.61085e-05
1.61092e-05
1.61104e-05
1.61123e-05
1.61145e-05
1.6117e-05
1.61199e-05
1.6123e-05
1.61264e-05
1.61301e-05
1.61341e-05
1.61384e-05
1.61429e-05
1.61485e-05
1.61558e-05
1.61649e-05
1.6178e-05
1.61413e-05
1.62275e-05
1.74824e-05
1.72744e-05
1.20724e-05
1.00124e-05
1e-05
1e-05
1e-05
0.0048656
0.0391849
0.245055
0.511522
0.667175
0.676849
0.599826
0.448884
1.61116e-05
1.61088e-05
1.61065e-05
1.61035e-05
1.61054e-05
1.61067e-05
1.61069e-05
1.6107e-05
1.61076e-05
1.61083e-05
1.61093e-05
1.61103e-05
1.61113e-05
1.61124e-05
1.61137e-05
1.6115e-05
1.61165e-05
1.61182e-05
1.61201e-05
1.61224e-05
1.61249e-05
1.61278e-05
1.61311e-05
1.61349e-05
1.61393e-05
1.61445e-05
1.61506e-05
1.61578e-05
1.6166e-05
1.61756e-05
1.61868e-05
1.61994e-05
1.6214e-05
1.62289e-05
1.62909e-05
1.63983e-05
1.6771e-05
1.48124e-05
1.00037e-05
1.61102e-05
1.61094e-05
1.61084e-05
1.61071e-05
1.61061e-05
1.6106e-05
1.61066e-05
1.61078e-05
1.61095e-05
1.61115e-05
1.61139e-05
1.61166e-05
1.61196e-05
1.61229e-05
1.61265e-05
1.61306e-05
1.61352e-05
1.61403e-05
1.61462e-05
1.61529e-05
1.61597e-05
1.61714e-05
1.61814e-05
1.61112e-05
1.62655e-05
1.73547e-05
1.77411e-05
1.32928e-05
1.00125e-05
1e-05
1e-05
1e-05
0.012438
0.120773
0.368777
0.558195
0.608141
0.566916
0.440633
1.61099e-05
1.61073e-05
1.61048e-05
1.61018e-05
1.61035e-05
1.61048e-05
1.61053e-05
1.61054e-05
1.61059e-05
1.61065e-05
1.61072e-05
1.6108e-05
1.61089e-05
1.61098e-05
1.61108e-05
1.61119e-05
1.61131e-05
1.61144e-05
1.6116e-05
1.61177e-05
1.61198e-05
1.61221e-05
1.61248e-05
1.61279e-05
1.61315e-05
1.61357e-05
1.61406e-05
1.61462e-05
1.61526e-05
1.616e-05
1.61683e-05
1.61779e-05
1.6189e-05
1.6206e-05
1.61964e-05
1.63363e-05
1.59765e-05
1.89288e-05
1.08179e-05
1.61082e-05
1.61075e-05
1.61062e-05
1.61047e-05
1.61038e-05
1.61037e-05
1.61043e-05
1.61053e-05
1.61068e-05
1.61086e-05
1.61107e-05
1.61131e-05
1.61157e-05
1.61187e-05
1.61219e-05
1.61255e-05
1.61295e-05
1.6134e-05
1.6139e-05
1.61452e-05
1.61524e-05
1.61611e-05
1.61752e-05
1.61823e-05
1.61092e-05
1.62381e-05
1.71358e-05
1.8387e-05
1.30274e-05
1.00075e-05
1e-05
1e-05
0.00105993
0.0331816
0.209205
0.400059
0.489713
0.495136
0.407789
1.61078e-05
1.61053e-05
1.61026e-05
1.60999e-05
1.61013e-05
1.61028e-05
1.61036e-05
1.61038e-05
1.61042e-05
1.61047e-05
1.61053e-05
1.6106e-05
1.61068e-05
1.61075e-05
1.61083e-05
1.61092e-05
1.61102e-05
1.61112e-05
1.61125e-05
1.61139e-05
1.61156e-05
1.61176e-05
1.61199e-05
1.61226e-05
1.61258e-05
1.61296e-05
1.6134e-05
1.61391e-05
1.61451e-05
1.6152e-05
1.616e-05
1.61694e-05
1.61801e-05
1.61937e-05
1.62004e-05
1.62672e-05
1.60159e-05
1.72916e-05
1.47634e-05
1.61059e-05
1.61052e-05
1.61038e-05
1.61025e-05
1.61018e-05
1.61016e-05
1.6102e-05
1.61029e-05
1.61042e-05
1.61058e-05
1.61077e-05
1.61098e-05
1.61123e-05
1.6115e-05
1.6118e-05
1.61213e-05
1.61251e-05
1.61294e-05
1.61342e-05
1.61398e-05
1.61465e-05
1.61542e-05
1.61636e-05
1.61819e-05
1.61801e-05
1.61174e-05
1.61831e-05
1.70849e-05
1.88557e-05
1.16926e-05
1.00012e-05
1e-05
1e-05
0.00983315
0.0787435
0.219747
0.323032
0.376268
0.338662
1.61053e-05
1.61028e-05
1.61001e-05
1.60975e-05
1.60989e-05
1.61005e-05
1.61015e-05
1.6102e-05
1.61025e-05
1.6103e-05
1.61036e-05
1.61042e-05
1.61049e-05
1.61055e-05
1.61062e-05
1.61069e-05
1.61077e-05
1.61086e-05
1.61096e-05
1.61107e-05
1.61121e-05
1.61137e-05
1.61156e-05
1.61179e-05
1.61206e-05
1.61238e-05
1.61275e-05
1.61319e-05
1.6137e-05
1.61429e-05
1.61497e-05
1.61576e-05
1.61669e-05
1.6178e-05
1.61902e-05
1.62114e-05
1.61896e-05
1.63448e-05
1.63718e-05
1.61032e-05
1.61028e-05
1.61013e-05
1.61003e-05
1.60997e-05
1.60996e-05
1.60999e-05
1.61005e-05
1.61016e-05
1.6103e-05
1.61046e-05
1.61066e-05
1.61088e-05
1.61112e-05
1.6114e-05
1.61171e-05
1.61206e-05
1.61246e-05
1.6129e-05
1.61341e-05
1.61403e-05
1.61476e-05
1.6156e-05
1.61678e-05
1.61853e-05
1.61809e-05
1.61476e-05
1.60455e-05
1.73865e-05
1.94144e-05
1.01925e-05
1e-05
1e-05
0.000445274
0.0136962
0.0769117
0.144115
0.208403
0.209238
1.61024e-05
1.61e-05
1.60973e-05
1.6095e-05
1.60963e-05
1.6098e-05
1.60993e-05
1.61001e-05
1.61007e-05
1.61012e-05
1.61019e-05
1.61025e-05
1.61032e-05
1.61038e-05
1.61044e-05
1.6105e-05
1.61057e-05
1.61065e-05
1.61073e-05
1.61082e-05
1.61093e-05
1.61106e-05
1.61122e-05
1.61141e-05
1.61164e-05
1.61191e-05
1.61223e-05
1.61261e-05
1.61306e-05
1.61358e-05
1.61419e-05
1.6149e-05
1.61573e-05
1.61672e-05
1.61789e-05
1.61913e-05
1.62176e-05
1.61803e-05
1.64306e-05
1.61005e-05
1.61001e-05
1.60989e-05
1.60981e-05
1.60976e-05
1.60975e-05
1.60977e-05
1.60982e-05
1.60991e-05
1.61002e-05
1.61017e-05
1.61034e-05
1.61054e-05
1.61077e-05
1.61102e-05
1.61131e-05
1.61164e-05
1.61201e-05
1.61243e-05
1.61291e-05
1.61347e-05
1.61414e-05
1.61493e-05
1.61587e-05
1.61719e-05
1.61838e-05
1.62128e-05
1.60977e-05
1.59541e-05
1.87788e-05
1.61503e-05
1.00088e-05
1e-05
1e-05
0.00348771
0.0136771
0.0335397
0.0626175
0.0633238
1.60995e-05
1.60972e-05
1.60946e-05
1.60925e-05
1.60936e-05
1.60954e-05
1.60968e-05
1.60979e-05
1.60987e-05
1.60994e-05
1.61001e-05
1.61008e-05
1.61015e-05
1.61022e-05
1.61028e-05
1.61034e-05
1.61041e-05
1.61048e-05
1.61055e-05
1.61064e-05
1.61073e-05
1.61083e-05
1.61096e-05
1.61111e-05
1.6113e-05
1.61152e-05
1.6118e-05
1.61212e-05
1.6125e-05
1.61295e-05
1.61348e-05
1.61409e-05
1.61482e-05
1.61568e-05
1.61672e-05
1.61791e-05
1.61991e-05
1.61911e-05
1.62997e-05
1.60977e-05
1.60975e-05
1.60964e-05
1.60958e-05
1.60955e-05
1.60954e-05
1.60955e-05
1.6096e-05
1.60967e-05
1.60977e-05
1.60989e-05
1.61004e-05
1.61021e-05
1.61042e-05
1.61065e-05
1.61092e-05
1.61123e-05
1.61158e-05
1.61197e-05
1.61242e-05
1.61295e-05
1.61357e-05
1.6143e-05
1.61515e-05
1.61623e-05
1.61741e-05
1.61875e-05
1.62538e-05
1.59631e-05
1.61049e-05
2.07675e-05
1.17072e-05
1e-05
1e-05
1.00372e-05
0.000340499
0.0028143
0.00786749
0.00866633
1.60967e-05
1.60946e-05
1.60923e-05
1.60902e-05
1.60911e-05
1.60928e-05
1.60944e-05
1.60956e-05
1.60966e-05
1.60975e-05
1.60983e-05
1.60991e-05
1.60998e-05
1.61006e-05
1.61013e-05
1.6102e-05
1.61027e-05
1.61034e-05
1.61042e-05
1.6105e-05
1.61058e-05
1.61067e-05
1.61077e-05
1.61089e-05
1.61104e-05
1.61122e-05
1.61145e-05
1.61172e-05
1.61205e-05
1.61244e-05
1.61289e-05
1.61343e-05
1.61406e-05
1.61483e-05
1.61574e-05
1.61685e-05
1.61828e-05
1.6195e-05
1.6238e-05
1.60953e-05
1.60951e-05
1.60942e-05
1.60937e-05
1.60935e-05
1.60934e-05
1.60936e-05
1.60939e-05
1.60945e-05
1.60952e-05
1.60962e-05
1.60975e-05
1.6099e-05
1.61008e-05
1.61029e-05
1.61054e-05
1.61083e-05
1.61115e-05
1.61152e-05
1.61194e-05
1.61244e-05
1.61302e-05
1.61371e-05
1.61449e-05
1.61541e-05
1.61678e-05
1.61654e-05
1.62305e-05
1.62622e-05
1.55295e-05
1.81915e-05
1.85824e-05
1.00111e-05
1e-05
1e-05
4.98449e-05
0.000649423
0.000261756
0.0020106
1.60944e-05
1.60926e-05
1.60905e-05
1.60884e-05
1.6089e-05
1.60905e-05
1.6092e-05
1.60933e-05
1.60945e-05
1.60955e-05
1.60965e-05
1.60973e-05
1.60982e-05
1.6099e-05
1.60998e-05
1.61006e-05
1.61014e-05
1.61022e-05
1.61031e-05
1.61039e-05
1.61046e-05
1.61053e-05
1.61062e-05
1.61071e-05
1.61083e-05
1.61098e-05
1.61117e-05
1.61139e-05
1.61167e-05
1.612e-05
1.61239e-05
1.61286e-05
1.61341e-05
1.61408e-05
1.61488e-05
1.61588e-05
1.61707e-05
1.6186e-05
1.62147e-05
1.60934e-05
1.60932e-05
1.60923e-05
1.60919e-05
1.60917e-05
1.60916e-05
1.60918e-05
1.60921e-05
1.60925e-05
1.60931e-05
1.60939e-05
1.60949e-05
1.60961e-05
1.60977e-05
1.60996e-05
1.61018e-05
1.61044e-05
1.61074e-05
1.61109e-05
1.61148e-05
1.61195e-05
1.6125e-05
1.61314e-05
1.61388e-05
1.61467e-05
1.61594e-05
1.61651e-05
1.61713e-05
1.6317e-05
1.59444e-05
1.59407e-05
2.04736e-05
1.20228e-05
1e-05
1e-05
1e-05
1e-05
3.08021e-05
1e-05
1.60928e-05
1.60913e-05
1.60894e-05
1.60872e-05
1.60875e-05
1.60887e-05
1.609e-05
1.60913e-05
1.60924e-05
1.60936e-05
1.60946e-05
1.60956e-05
1.60965e-05
1.60975e-05
1.60984e-05
1.60993e-05
1.61002e-05
1.6101e-05
1.61019e-05
1.61027e-05
1.61035e-05
1.61042e-05
1.61049e-05
1.61057e-05
1.61067e-05
1.61079e-05
1.61094e-05
1.61113e-05
1.61136e-05
1.61164e-05
1.61198e-05
1.61238e-05
1.61286e-05
1.61345e-05
1.61415e-05
1.61504e-05
1.61608e-05
1.61749e-05
1.62004e-05
1.60922e-05
1.60919e-05
1.6091e-05
1.60906e-05
1.60903e-05
1.60903e-05
1.60904e-05
1.60906e-05
1.60909e-05
1.60913e-05
1.60918e-05
1.60926e-05
1.60936e-05
1.60949e-05
1.60965e-05
1.60984e-05
1.61008e-05
1.61035e-05
1.61067e-05
1.61104e-05
1.61147e-05
1.61198e-05
1.61258e-05
1.61328e-05
1.61403e-05
1.61499e-05
1.61638e-05
1.61546e-05
1.62326e-05
1.62711e-05
1.56057e-05
1.77392e-05
1.90952e-05
1.00002e-05
1e-05
1e-05
1e-05
1e-05
1e-05
1.6092e-05
1.60909e-05
1.6089e-05
1.60867e-05
1.60865e-05
1.60874e-05
1.60885e-05
1.60896e-05
1.60907e-05
1.60918e-05
1.60928e-05
1.60939e-05
1.60949e-05
1.60959e-05
1.60969e-05
1.60978e-05
1.60988e-05
1.60997e-05
1.61006e-05
1.61015e-05
1.61023e-05
1.6103e-05
1.61037e-05
1.61044e-05
1.61053e-05
1.61063e-05
1.61075e-05
1.61091e-05
1.61111e-05
1.61134e-05
1.61163e-05
1.61198e-05
1.61239e-05
1.61291e-05
1.61352e-05
1.61431e-05
1.61522e-05
1.6165e-05
1.61878e-05
1.60918e-05
1.60912e-05
1.60903e-05
1.60898e-05
1.60895e-05
1.60893e-05
1.60894e-05
1.60895e-05
1.60896e-05
1.60899e-05
1.60903e-05
1.60908e-05
1.60916e-05
1.60926e-05
1.60939e-05
1.60955e-05
1.60975e-05
1.60999e-05
1.61028e-05
1.61062e-05
1.61101e-05
1.61148e-05
1.61204e-05
1.61268e-05
1.61342e-05
1.6142e-05
1.61555e-05
1.61585e-05
1.61698e-05
1.62992e-05
1.59698e-05
1.60888e-05
1.94471e-05
1.29133e-05
1.00058e-05
1e-05
1e-05
1e-05
1e-05
1.6092e-05
1.6091e-05
1.60892e-05
1.60868e-05
1.60863e-05
1.60867e-05
1.60875e-05
1.60883e-05
1.60893e-05
1.60902e-05
1.60912e-05
1.60923e-05
1.60933e-05
1.60943e-05
1.60954e-05
1.60964e-05
1.60974e-05
1.60984e-05
1.60993e-05
1.61002e-05
1.61011e-05
1.61019e-05
1.61025e-05
1.61032e-05
1.6104e-05
1.61048e-05
1.61059e-05
1.61073e-05
1.61089e-05
1.61109e-05
1.61134e-05
1.61164e-05
1.612e-05
1.61245e-05
1.61299e-05
1.61368e-05
1.61448e-05
1.61563e-05
1.61764e-05
1.6092e-05
1.60912e-05
1.60902e-05
1.60896e-05
1.60892e-05
1.60889e-05
1.60889e-05
1.60888e-05
1.60889e-05
1.6089e-05
1.60892e-05
1.60895e-05
1.609e-05
1.60907e-05
1.60917e-05
1.6093e-05
1.60947e-05
1.60967e-05
1.60993e-05
1.61023e-05
1.61058e-05
1.61101e-05
1.61152e-05
1.61212e-05
1.61281e-05
1.61353e-05
1.61457e-05
1.61577e-05
1.61537e-05
1.62244e-05
1.62198e-05
1.58644e-05
1.71791e-05
1.79274e-05
1.1266e-05
1.00012e-05
1.00013e-05
1e-05
1e-05
1.60925e-05
1.60916e-05
1.60898e-05
1.60873e-05
1.60865e-05
1.60866e-05
1.60871e-05
1.60876e-05
1.60883e-05
1.60891e-05
1.60899e-05
1.60909e-05
1.60919e-05
1.60929e-05
1.60939e-05
1.6095e-05
1.6096e-05
1.6097e-05
1.6098e-05
1.60989e-05
1.60998e-05
1.61007e-05
1.61014e-05
1.6102e-05
1.61027e-05
1.61035e-05
1.61045e-05
1.61056e-05
1.61071e-05
1.61088e-05
1.6111e-05
1.61136e-05
1.61168e-05
1.61207e-05
1.61253e-05
1.61314e-05
1.61384e-05
1.61488e-05
1.61662e-05
1.60925e-05
1.60916e-05
1.60905e-05
1.60898e-05
1.60893e-05
1.6089e-05
1.60888e-05
1.60886e-05
1.60886e-05
1.60885e-05
1.60885e-05
1.60887e-05
1.6089e-05
1.60894e-05
1.60901e-05
1.60911e-05
1.60924e-05
1.6094e-05
1.60962e-05
1.60988e-05
1.6102e-05
1.61058e-05
1.61104e-05
1.61159e-05
1.61222e-05
1.61291e-05
1.61375e-05
1.61501e-05
1.6153e-05
1.61747e-05
1.62517e-05
1.60567e-05
1.6189e-05
1.76834e-05
1.60502e-05
1.20146e-05
1.05711e-05
1e-05
1e-05
1.60932e-05
1.60924e-05
1.60906e-05
1.60882e-05
1.60871e-05
1.6087e-05
1.60871e-05
1.60874e-05
1.60878e-05
1.60883e-05
1.6089e-05
1.60898e-05
1.60907e-05
1.60916e-05
1.60926e-05
1.60936e-05
1.60946e-05
1.60957e-05
1.60967e-05
1.60977e-05
1.60986e-05
1.60994e-05
1.61002e-05
1.61008e-05
1.61014e-05
1.61022e-05
1.61031e-05
1.61041e-05
1.61054e-05
1.6107e-05
1.61089e-05
1.61112e-05
1.6114e-05
1.61174e-05
1.61215e-05
1.61269e-05
1.6133e-05
1.61424e-05
1.61574e-05
1.60932e-05
1.60922e-05
1.6091e-05
1.60903e-05
1.60897e-05
1.60893e-05
1.6089e-05
1.60888e-05
1.60886e-05
1.60885e-05
1.60884e-05
1.60883e-05
1.60884e-05
1.60887e-05
1.60891e-05
1.60897e-05
1.60907e-05
1.6092e-05
1.60937e-05
1.60959e-05
1.60986e-05
1.61019e-05
1.6106e-05
1.61109e-05
1.61166e-05
1.61231e-05
1.61307e-05
1.61412e-05
1.61492e-05
1.6159e-05
1.62121e-05
1.61671e-05
1.60952e-05
1.67272e-05
1.67148e-05
1.5539e-05
1.80879e-05
1e-05
1e-05
1.60938e-05
1.6093e-05
1.60913e-05
1.6089e-05
1.60879e-05
1.60876e-05
1.60875e-05
1.60875e-05
1.60877e-05
1.6088e-05
1.60885e-05
1.60891e-05
1.60898e-05
1.60906e-05
1.60915e-05
1.60925e-05
1.60934e-05
1.60944e-05
1.60954e-05
1.60964e-05
1.60973e-05
1.60982e-05
1.6099e-05
1.60996e-05
1.61002e-05
1.61009e-05
1.61017e-05
1.61027e-05
1.61039e-05
1.61053e-05
1.6107e-05
1.61091e-05
1.61116e-05
1.61146e-05
1.61182e-05
1.6123e-05
1.61283e-05
1.61369e-05
1.61498e-05
1.60937e-05
1.60927e-05
1.60915e-05
1.60908e-05
1.60903e-05
1.60898e-05
1.60894e-05
1.60892e-05
1.60889e-05
1.60888e-05
1.60886e-05
1.60884e-05
1.60883e-05
1.60884e-05
1.60886e-05
1.60889e-05
1.60896e-05
1.60905e-05
1.60918e-05
1.60936e-05
1.60958e-05
1.60986e-05
1.61021e-05
1.61064e-05
1.61115e-05
1.61173e-05
1.61244e-05
1.61334e-05
1.61415e-05
1.61537e-05
1.61832e-05
1.61683e-05
1.61887e-05
1.64218e-05
1.59698e-05
1.63315e-05
2.34433e-05
1e-05
1e-05
1.60943e-05
1.60935e-05
1.60919e-05
1.60898e-05
1.60887e-05
1.60882e-05
1.6088e-05
1.60879e-05
1.60879e-05
1.6088e-05
1.60883e-05
1.60887e-05
1.60892e-05
1.60899e-05
1.60907e-05
1.60915e-05
1.60924e-05
1.60933e-05
1.60943e-05
1.60952e-05
1.60961e-05
1.6097e-05
1.60978e-05
1.60984e-05
1.60989e-05
1.60996e-05
1.61004e-05
1.61013e-05
1.61024e-05
1.61037e-05
1.61053e-05
1.61072e-05
1.61095e-05
1.61122e-05
1.61155e-05
1.61198e-05
1.61244e-05
1.61322e-05
1.61432e-05
1.6094e-05
1.60931e-05
1.6092e-05
1.60913e-05
1.60907e-05
1.60903e-05
1.60899e-05
1.60896e-05
1.60894e-05
1.60892e-05
1.6089e-05
1.60888e-05
1.60886e-05
1.60885e-05
1.60885e-05
1.60886e-05
1.6089e-05
1.60896e-05
1.60906e-05
1.60919e-05
1.60937e-05
1.6096e-05
1.60988e-05
1.61025e-05
1.61068e-05
1.6112e-05
1.61185e-05
1.61266e-05
1.61331e-05
1.61473e-05
1.61714e-05
1.61413e-05
1.62231e-05
1.64316e-05
1.55326e-05
1.65239e-05
2.34343e-05
1.00001e-05
1e-05
1.60945e-05
1.60938e-05
1.60923e-05
1.60904e-05
1.60893e-05
1.60889e-05
1.60886e-05
1.60884e-05
1.60883e-05
1.60883e-05
1.60884e-05
1.60886e-05
1.6089e-05
1.60895e-05
1.60901e-05
1.60908e-05
1.60916e-05
1.60924e-05
1.60933e-05
1.60942e-05
1.6095e-05
1.60959e-05
1.60966e-05
1.60972e-05
1.60977e-05
1.60983e-05
1.6099e-05
1.60999e-05
1.61009e-05
1.61022e-05
1.61037e-05
1.61055e-05
1.61076e-05
1.61101e-05
1.61131e-05
1.61171e-05
1.61212e-05
1.61283e-05
1.61376e-05
1.60942e-05
1.60933e-05
1.60923e-05
1.60917e-05
1.60911e-05
1.60907e-05
1.60904e-05
1.60901e-05
1.60899e-05
1.60897e-05
1.60895e-05
1.60893e-05
1.6089e-05
1.60888e-05
1.60887e-05
1.60887e-05
1.60889e-05
1.60892e-05
1.60899e-05
1.60908e-05
1.60922e-05
1.60939e-05
1.60962e-05
1.60991e-05
1.61028e-05
1.61071e-05
1.61129e-05
1.61202e-05
1.61255e-05
1.61396e-05
1.61639e-05
1.6121e-05
1.62115e-05
1.64729e-05
1.54138e-05
1.65692e-05
2.26891e-05
1.00001e-05
1e-05
1.60945e-05
1.60939e-05
1.60925e-05
1.60908e-05
1.60898e-05
1.60894e-05
1.60891e-05
1.60889e-05
1.60887e-05
1.60887e-05
1.60887e-05
1.60888e-05
1.6089e-05
1.60894e-05
1.60898e-05
1.60904e-05
1.6091e-05
1.60918e-05
1.60925e-05
1.60933e-05
1.60941e-05
1.60949e-05
1.60956e-05
1.60961e-05
1.60966e-05
1.60971e-05
1.60977e-05
1.60985e-05
1.60995e-05
1.61007e-05
1.61021e-05
1.61038e-05
1.61058e-05
1.61082e-05
1.61111e-05
1.61147e-05
1.61185e-05
1.6125e-05
1.61329e-05
1.60941e-05
1.60933e-05
1.60924e-05
1.60919e-05
1.60914e-05
1.6091e-05
1.60907e-05
1.60905e-05
1.60903e-05
1.60902e-05
1.609e-05
1.60898e-05
1.60896e-05
1.60894e-05
1.60892e-05
1.60891e-05
1.60891e-05
1.60892e-05
1.60896e-05
1.60903e-05
1.60913e-05
1.60926e-05
1.60942e-05
1.60965e-05
1.60994e-05
1.61029e-05
1.61078e-05
1.61142e-05
1.61189e-05
1.61319e-05
1.61548e-05
1.61096e-05
1.61958e-05
1.64762e-05
1.53927e-05
1.65329e-05
2.24607e-05
1.00015e-05
1e-05
1.60944e-05
1.60938e-05
1.60925e-05
1.60909e-05
1.60901e-05
1.60897e-05
1.60895e-05
1.60893e-05
1.60892e-05
1.6089e-05
1.6089e-05
1.6089e-05
1.60891e-05
1.60894e-05
1.60897e-05
1.60902e-05
1.60907e-05
1.60913e-05
1.60919e-05
1.60926e-05
1.60933e-05
1.6094e-05
1.60946e-05
1.60951e-05
1.60956e-05
1.60959e-05
1.60965e-05
1.60972e-05
1.60981e-05
1.60992e-05
1.61005e-05
1.61022e-05
1.61041e-05
1.61064e-05
1.61092e-05
1.61127e-05
1.61162e-05
1.61223e-05
1.61289e-05
1.6094e-05
1.60933e-05
1.60924e-05
1.6092e-05
1.60915e-05
1.60912e-05
1.60909e-05
1.60908e-05
1.60907e-05
1.60906e-05
1.60905e-05
1.60904e-05
1.60902e-05
1.60899e-05
1.60897e-05
1.60895e-05
1.60895e-05
1.60895e-05
1.60897e-05
1.60901e-05
1.60908e-05
1.60917e-05
1.60929e-05
1.60945e-05
1.60967e-05
1.60994e-05
1.61034e-05
1.61087e-05
1.61128e-05
1.61245e-05
1.61449e-05
1.61025e-05
1.61852e-05
1.6456e-05
1.53808e-05
1.63402e-05
2.34606e-05
1.00766e-05
1e-05
1.60943e-05
1.60937e-05
1.60924e-05
1.60909e-05
1.60902e-05
1.60899e-05
1.60897e-05
1.60896e-05
1.60894e-05
1.60893e-05
1.60893e-05
1.60893e-05
1.60893e-05
1.60895e-05
1.60898e-05
1.60901e-05
1.60905e-05
1.6091e-05
1.60915e-05
1.60921e-05
1.60927e-05
1.60933e-05
1.60938e-05
1.60943e-05
1.60946e-05
1.60949e-05
1.60953e-05
1.60959e-05
1.60967e-05
1.60977e-05
1.6099e-05
1.61006e-05
1.61024e-05
1.61047e-05
1.61074e-05
1.61107e-05
1.61141e-05
1.612e-05
1.61256e-05
1.60939e-05
1.60932e-05
1.60924e-05
1.6092e-05
1.60916e-05
1.60913e-05
1.60911e-05
1.6091e-05
1.60909e-05
1.60909e-05
1.60909e-05
1.60908e-05
1.60907e-05
1.60905e-05
1.60903e-05
1.60901e-05
1.609e-05
1.60899e-05
1.609e-05
1.60903e-05
1.60908e-05
1.60914e-05
1.60922e-05
1.60932e-05
1.60947e-05
1.60966e-05
1.60997e-05
1.6104e-05
1.61071e-05
1.61175e-05
1.61365e-05
1.60953e-05
1.61749e-05
1.64345e-05
1.52524e-05
1.72564e-05
2.18988e-05
1.08211e-05
1e-05
1.60941e-05
1.60934e-05
1.6092e-05
1.60907e-05
1.609e-05
1.60898e-05
1.60897e-05
1.60896e-05
1.60895e-05
1.60895e-05
1.60895e-05
1.60895e-05
1.60895e-05
1.60897e-05
1.60899e-05
1.60901e-05
1.60905e-05
1.60909e-05
1.60913e-05
1.60918e-05
1.60922e-05
1.60927e-05
1.60932e-05
1.60935e-05
1.60938e-05
1.6094e-05
1.60943e-05
1.60947e-05
1.60954e-05
1.60964e-05
1.60976e-05
1.6099e-05
1.61008e-05
1.6103e-05
1.61056e-05
1.61089e-05
1.61121e-05
1.61178e-05
1.61228e-05
1.60937e-05
1.6093e-05
1.60923e-05
1.6092e-05
1.60917e-05
1.60914e-05
1.60913e-05
1.60912e-05
1.60912e-05
1.60912e-05
1.60912e-05
1.60912e-05
1.60912e-05
1.6091e-05
1.60908e-05
1.60907e-05
1.60905e-05
1.60905e-05
1.60905e-05
1.60906e-05
1.6091e-05
1.60914e-05
1.60919e-05
1.60925e-05
1.60934e-05
1.60946e-05
1.60967e-05
1.61002e-05
1.61019e-05
1.61111e-05
1.613e-05
1.60861e-05
1.61639e-05
1.64212e-05
1.51498e-05
1.83218e-05
1.93227e-05
1.09176e-05
1e-05
1.60937e-05
1.6093e-05
1.60915e-05
1.60902e-05
1.60896e-05
1.60894e-05
1.60894e-05
1.60894e-05
1.60894e-05
1.60895e-05
1.60895e-05
1.60895e-05
1.60896e-05
1.60898e-05
1.609e-05
1.60902e-05
1.60905e-05
1.60908e-05
1.60912e-05
1.60915e-05
1.60919e-05
1.60923e-05
1.60926e-05
1.60929e-05
1.60931e-05
1.60932e-05
1.60933e-05
1.60937e-05
1.60943e-05
1.60951e-05
1.60962e-05
1.60976e-05
1.60993e-05
1.61014e-05
1.61039e-05
1.6107e-05
1.61102e-05
1.61157e-05
1.61202e-05
1.60934e-05
1.60929e-05
1.60923e-05
1.60921e-05
1.60918e-05
1.60916e-05
1.60915e-05
1.60914e-05
1.60914e-05
1.60915e-05
1.60916e-05
1.60916e-05
1.60916e-05
1.60915e-05
1.60914e-05
1.60912e-05
1.60911e-05
1.6091e-05
1.6091e-05
1.60911e-05
1.60913e-05
1.60916e-05
1.60919e-05
1.60922e-05
1.60927e-05
1.60933e-05
1.60946e-05
1.60973e-05
1.60977e-05
1.61056e-05
1.61243e-05
1.60766e-05
1.61535e-05
1.64141e-05
1.51e-05
1.86726e-05
1.86533e-05
1.08703e-05
1e-05
1.60933e-05
1.60925e-05
1.6091e-05
1.60897e-05
1.6089e-05
1.60888e-05
1.60888e-05
1.60889e-05
1.6089e-05
1.60892e-05
1.60893e-05
1.60894e-05
1.60896e-05
1.60898e-05
1.609e-05
1.60902e-05
1.60905e-05
1.60908e-05
1.60911e-05
1.60914e-05
1.60917e-05
1.6092e-05
1.60922e-05
1.60924e-05
1.60925e-05
1.60925e-05
1.60925e-05
1.60928e-05
1.60932e-05
1.60939e-05
1.60949e-05
1.60961e-05
1.60978e-05
1.60998e-05
1.61022e-05
1.61052e-05
1.61083e-05
1.61137e-05
1.61178e-05
1.60931e-05
1.60927e-05
1.60923e-05
1.60922e-05
1.6092e-05
1.60918e-05
1.60918e-05
1.60917e-05
1.60918e-05
1.60919e-05
1.60919e-05
1.6092e-05
1.6092e-05
1.6092e-05
1.60919e-05
1.60918e-05
1.60917e-05
1.60916e-05
1.60916e-05
1.60916e-05
1.60918e-05
1.60919e-05
1.60921e-05
1.60922e-05
1.60924e-05
1.60926e-05
1.60931e-05
1.6095e-05
1.60945e-05
1.61007e-05
1.61185e-05
1.60694e-05
1.61448e-05
1.64044e-05
1.50747e-05
1.87421e-05
1.87522e-05
1.08646e-05
1e-05
1.60929e-05
1.60921e-05
1.60906e-05
1.60892e-05
1.60884e-05
1.60881e-05
1.60881e-05
1.60882e-05
1.60884e-05
1.60886e-05
1.60888e-05
1.60891e-05
1.60893e-05
1.60896e-05
1.60898e-05
1.60901e-05
1.60904e-05
1.60907e-05
1.6091e-05
1.60913e-05
1.60915e-05
1.60917e-05
1.60919e-05
1.6092e-05
1.6092e-05
1.60919e-05
1.60918e-05
1.6092e-05
1.60923e-05
1.60928e-05
1.60937e-05
1.60948e-05
1.60964e-05
1.60983e-05
1.61006e-05
1.61035e-05
1.61064e-05
1.61117e-05
1.61154e-05
1.60928e-05
1.60925e-05
1.60923e-05
1.60923e-05
1.60923e-05
1.60922e-05
1.60921e-05
1.60922e-05
1.60922e-05
1.60923e-05
1.60924e-05
1.60925e-05
1.60925e-05
1.60925e-05
1.60924e-05
1.60923e-05
1.60922e-05
1.60921e-05
1.60921e-05
1.60922e-05
1.60923e-05
1.60924e-05
1.60924e-05
1.60924e-05
1.60923e-05
1.60922e-05
1.60922e-05
1.60934e-05
1.60922e-05
1.60964e-05
1.6113e-05
1.60654e-05
1.61359e-05
1.63885e-05
1.50815e-05
1.86676e-05
1.8646e-05
1.08653e-05
1e-05
1.60927e-05
1.60921e-05
1.60906e-05
1.6089e-05
1.6088e-05
1.60876e-05
1.60874e-05
1.60875e-05
1.60877e-05
1.60879e-05
1.60882e-05
1.60885e-05
1.60888e-05
1.60892e-05
1.60895e-05
1.60899e-05
1.60902e-05
1.60905e-05
1.60908e-05
1.60911e-05
1.60913e-05
1.60915e-05
1.60916e-05
1.60916e-05
1.60915e-05
1.60914e-05
1.60912e-05
1.60912e-05
1.60914e-05
1.60919e-05
1.60926e-05
1.60936e-05
1.6095e-05
1.60968e-05
1.6099e-05
1.61017e-05
1.61046e-05
1.61097e-05
1.61131e-05
1.60927e-05
1.60925e-05
1.60924e-05
1.60925e-05
1.60926e-05
1.60926e-05
1.60926e-05
1.60927e-05
1.60928e-05
1.60929e-05
1.6093e-05
1.6093e-05
1.60931e-05
1.60931e-05
1.6093e-05
1.60929e-05
1.60928e-05
1.60927e-05
1.60927e-05