/*--------------------------------*- C++ -*----------------------------------*\
| =========                 |                                                 |
| \\      /  F ield         | OpenFOAM: The Open Source CFD Toolbox           |
|  \\    /   O peration     | Version:  2312                                  |
|   \\  /    A nd           | Website:  www.openfoam.com                      |
|    \\/     M anipulation  |                                                 |
\*---------------------------------------------------------------------------*/
FoamFile
{
    version     2.0;
    format      ascii;
    arch        "LSB;label=32;scalar=64";
    class       volVectorField;
    location    "50";
    object      U;
}
// * * * * * * * * * * * * * * * * * * * * * * * * * * * * * * * * * * * * * //

dimensions      [0 1 -1 0 0 0 0];

internalField   nonuniform List<vector> 
10720
(
(1.61004 18.1681 -3.10533e-17)
(2.73969 20.4731 2.73864e-17)
(4.27796 22.7703 0)
(6.15226 24.7407 -5.73204e-17)
(8.3219 26.4145 6.995e-17)
(10.735 27.727 1.07765e-16)
(13.2617 28.5764 2.21861e-16)
(15.8113 28.9719 0)
(18.3043 28.9485 0)
(20.6569 28.53 0)
(22.8249 27.7795 9.39864e-17)
(24.78 26.7686 0)
(26.4896 25.5286 1.73777e-15)
(27.9491 24.1379 0)
(29.0599 22.5443 0)
(29.7811 20.7677 0)
(30.0522 18.7946 -3.20451e-15)
(29.8036 16.6416 -4.9755e-15)
(28.9013 14.3025 4.60101e-15)
(27.1785 11.8106 0)
(24.3628 9.18744 4.33888e-15)
(20.2432 6.51266 -9.80995e-15)
(14.822 3.94796 6.23627e-15)
(9.4737 1.86489 -2.58424e-16)
(5.84543 0.515764 0)
(4.24051 -0.0788873 7.21227e-15)
(3.76569 -0.164697 1.1738e-16)
(3.46045 -0.12706 -2.84208e-15)
(3.26296 -0.144563 -8.97326e-15)
(3.09792 -0.168248 -2.90393e-14)
(2.43537 -0.12724 1.2423e-14)
(1.9559 -0.155666 2.27519e-14)
(2.77149 -0.409177 2.15225e-14)
(2.35009 -0.338385 8.36777e-14)
(-1.88913 0.592834 -2.96974e-14)
(-4.39188 0.984442 -1.69104e-16)
(-4.71589 0.958909 7.88562e-17)
(-4.70684 0.887853 2.42039e-14)
(-6.70859 1.39016 -5.9705e-15)
(0.825467 15.785 -2.64795e-17)
(0.332247 13.1664 -7.45285e-17)
(0.220282 10.2562 2.12245e-16)
(0.565863 7.06161 -5.94955e-16)
(1.4221 4.01987 -2.24203e-15)
(2.64279 1.30807 3.29791e-15)
(4.21777 -1.32205 6.12593e-15)
(6.22922 -3.73498 1.18272e-15)
(8.47802 -5.63478 0)
(10.7312 -6.93384 0)
(12.8256 -7.68975 9.86034e-16)
(14.6879 -8.02901 3.6702e-16)
(16.3015 -8.07142 -6.38226e-16)
(17.6719 -7.91509 5.24847e-16)
(18.8308 -7.64681 8.72176e-16)
(19.8248 -7.31996 5.59262e-16)
(20.6913 -6.97003 6.68586e-16)
(21.4634 -6.61481 4.24379e-16)
(22.1733 -6.26548 0)
(22.8431 -5.91728 0)
(23.4911 -5.56574 -4.18807e-16)
(24.1261 -5.19562 -9.80377e-18)
(24.7459 -4.78723 7.41185e-17)
(25.3105 -4.31376 1.00541e-16)
(25.7436 -3.77489 3.17492e-17)
(26.0295 -3.22559 0)
(26.2153 -2.68089 -1.93137e-16)
(26.3472 -2.06702 0)
(26.4361 -1.35054 0)
(26.4732 -0.587535 -2.14535e-16)
(26.4297 0.157445 0)
(26.2931 0.845614 8.3883e-16)
(26.0589 1.46071 1.47376e-15)
(25.7338 1.99916 6.59016e-15)
(25.3117 2.46253 -2.13341e-15)
(24.7911 2.85736 7.28897e-18)
(24.0672 3.1781 0)
(22.9664 3.40675 9.18767e-16)
(20.4599 3.46596 5.20918e-15)
(6.39713 15.804 -3.44937e-17)
(7.65883 17.5485 2.96369e-17)
(9.2823 19.2289 0)
(11.2335 20.7391 0)
(13.4287 22.001 -1.92885e-17)
(15.8688 22.9555 -1.02897e-16)
(18.4615 23.5446 0)
(21.0982 23.7635 0)
(23.7221 23.6085 3.66774e-16)
(26.2512 23.1092 0)
(28.6299 22.307 1.63604e-15)
(30.8241 21.2399 0)
(32.811 19.9533 6.5049e-16)
(34.5618 18.4765 -6.4109e-16)
(36.1269 16.9341 1.34728e-15)
(37.5267 15.361 -2.75566e-15)
(38.7252 13.8085 2.97961e-15)
(39.6924 12.3204 2.70378e-15)
(40.3891 10.9255 2.62301e-15)
(40.7211 9.66661 1.56694e-16)
(40.5034 8.55537 -2.64356e-15)
(39.367 7.52712 2.49968e-15)
(36.7509 6.32713 -1.46726e-16)
(32.2429 4.76512 0)
(26.5304 3.06299 0)
(20.7565 1.56025 0)
(15.7945 0.478569 2.16994e-16)
(12.2675 -0.0954287 -4.92777e-17)
(10.0639 -0.329204 2.95207e-15)
(8.44202 -0.4169 1.08926e-17)
(6.81595 -0.42607 -6.94628e-18)
(5.67447 -0.501669 -6.06529e-17)
(5.56363 -0.67728 6.62987e-15)
(3.96389 -0.393753 -1.18008e-14)
(-0.248976 0.468471 -7.44063e-17)
(-1.90096 0.594863 -1.66378e-14)
(-1.60946 0.367468 0)
(-0.523946 0.119621 -5.17491e-15)
(-2.85617 0.356549 -2.48381e-15)
(5.42225 13.9966 5.00177e-17)
(4.6643 12.0386 -1.36532e-16)
(4.17898 9.77625 -1.4303e-15)
(4.03607 7.29234 1.90832e-15)
(4.39075 4.76163 0)
(5.19553 2.31225 -3.17025e-15)
(6.38423 -0.0463788 -1.13048e-15)
(7.94991 -2.09625 -5.15486e-15)
(9.778 -3.66272 1.40742e-15)
(11.7095 -4.7347 -1.04046e-15)
(13.6068 -5.37032 1.37007e-15)
(15.375 -5.6624 -3.93258e-16)
(16.9718 -5.70255 0)
(18.3814 -5.56931 -2.41054e-16)
(19.6093 -5.34379 7.16139e-17)
(20.6856 -5.0679 -4.9251e-16)
(21.6381 -4.774 0)
(22.4956 -4.47578 0)
(23.2858 -4.18325 -4.44524e-17)
(24.0346 -3.88455 4.3288e-17)
(24.7588 -3.57004 -4.21376e-16)
(25.4704 -3.21385 -3.4521e-17)
(26.1686 -2.78765 1.21396e-17)
(26.8259 -2.24304 -2.01656e-17)
(27.3819 -1.58992 1.86614e-16)
(27.8081 -0.89925 2.20773e-16)
(28.1114 -0.208992 0)
(28.2854 0.429933 0)
(28.332 0.982121 0)
(28.2605 1.44583 1.02081e-17)
(28.106 1.84391 0)
(27.8903 2.20593 0)
(27.6226 2.54963 -2.49117e-15)
(27.3052 2.87762 -2.19761e-15)
(26.9219 3.18568 1.76859e-15)
(26.4808 3.47127 -1.18165e-15)
(25.8758 3.71905 1.05858e-15)
(25.2016 3.95313 -7.94632e-16)
(23.4054 3.86112 -3.48677e-15)
(8.49034 14.6083 -9.33523e-18)
(9.37916 16.1287 -1.23537e-16)
(10.5203 17.6617 8.71763e-17)
(11.8911 19.1268 4.71882e-17)
(13.4678 20.4219 2.14531e-18)
(15.2506 21.5269 1.0041e-16)
(17.1817 22.3925 -9.77003e-17)
(19.2004 22.975 -2.06742e-16)
(21.2561 23.2648 1.91328e-17)
(23.2925 23.2611 -3.60277e-16)
(25.2572 22.9745 3.78993e-16)
(27.1127 22.4275 -1.05588e-15)
(28.8242 21.6491 -5.31549e-16)
(30.3655 20.6645 0)
(31.7139 19.4961 -1.3582e-15)
(32.8418 18.1823 2.83253e-15)
(33.796 16.7152 0)
(34.604 15.1235 -5.50156e-15)
(35.3135 13.4472 -2.75111e-15)
(35.9801 11.7709 3.17802e-16)
(36.7276 10.1905 -3.04184e-16)
(37.6477 8.81838 -1.33615e-16)
(38.5738 7.59633 -1.81926e-15)
(38.7157 6.27429 9.22312e-16)
(37.2839 4.74399 0)
(34.0956 3.13547 9.4001e-16)
(29.3503 1.65411 -1.22448e-16)
(23.7376 0.497055 0)
(18.5856 -0.216528 1.78094e-15)
(14.6608 -0.530733 3.1652e-15)
(11.6212 -0.636002 -5.33412e-15)
(9.46905 -0.749258 -4.5116e-15)
(8.19247 -0.823415 -7.68064e-17)
(5.75391 -0.402536 -6.30224e-15)
(2.04239 0.249822 -5.49142e-15)
(0.665395 0.166188 9.86139e-15)
(1.02098 -0.184864 0)
(2.2526 -0.488314 -3.17946e-15)
(0.456005 -0.556279 3.35425e-15)
(7.82198 13.045 -4.64547e-17)
(7.28943 11.3845 -1.26335e-16)
(6.95567 9.46522 5.81114e-16)
(6.81627 7.37401 0)
(7.00364 5.23555 9.62054e-16)
(7.52151 3.1097 0)
(8.39011 1.04961 3.15439e-15)
(9.56454 -0.802528 1.31669e-15)
(10.9555 -2.34225 1.10449e-15)
(12.465 -3.55003 0)
(13.9966 -4.43495 -1.53138e-15)
(15.474 -5.02894 -3.10016e-16)
(16.8534 -5.38149 1.41542e-15)
(18.1105 -5.5472 0)
(19.2386 -5.57942 -6.0699e-16)
(20.2501 -5.51708 -1.81699e-16)
(21.1627 -5.3912 7.0653e-16)
(21.9966 -5.22141 3.4993e-16)
(22.7731 -5.02059 8.45619e-17)
(23.5127 -4.78759 -5.05706e-17)
(24.2301 -4.51794 3.85941e-16)
(24.9344 -4.19655 0)
(25.6238 -3.80447 0)
(26.2739 -3.31928 3.18764e-17)
(26.8352 -2.7605 0)
(27.282 -2.18616 -4.16777e-16)
(27.6287 -1.61985 7.50994e-18)
(27.8932 -1.05913 7.76157e-17)
(28.0823 -0.492439 0)
(28.1981 0.0905366 1.90771e-16)
(28.2405 0.690819 -3.62293e-16)
(28.2078 1.29172 0)
(28.0959 1.87146 1.32221e-15)
(27.9046 2.40941 0)
(27.6185 2.89118 0)
(27.2454 3.30915 4.31042e-17)
(26.6767 3.65375 -6.40037e-17)
(25.9666 3.91531 8.43579e-16)
(24.2636 3.83212 7.09127e-15)
(10.6752 13.4646 -3.55289e-17)
(11.4819 14.7578 -5.00223e-17)
(12.507 16.0687 7.22135e-17)
(13.7383 17.3191 5.32431e-17)
(15.1548 18.4258 0)
(16.7647 19.3767 0)
(18.5263 20.1211 -1.83435e-16)
(20.3934 20.6166 3.09488e-16)
(22.3257 20.8492 0)
(24.2737 20.8087 -5.63123e-16)
(26.189 20.4985 -8.14379e-16)
(28.0322 19.932 -8.01237e-16)
(29.7664 19.1296 1.0266e-15)
(31.3611 18.1126 9.92074e-16)
(32.7856 16.9113 0)
(34.0233 15.5579 1.67533e-15)
(35.0445 14.1 5.93674e-16)
(35.8017 12.6096 4.88398e-15)
(36.2741 11.137 2.96291e-16)
(36.4733 9.72961 -2.90233e-16)
(36.4582 8.44351 2.44169e-15)
(36.4006 7.33751 -3.89991e-16)
(36.6233 6.40857 2.06839e-15)
(37.2581 5.52041 8.45182e-16)
(37.8595 4.53103 -5.08125e-17)
(37.7697 3.43935 -7.52013e-16)
(36.4011 2.30911 5.57209e-18)
(33.2433 1.2121 -5.83219e-18)
(28.2969 0.260879 -1.33136e-15)
(22.662 -0.387685 -3.52001e-17)
(17.7075 -0.728839 2.16314e-15)
(14.0375 -0.935607 -3.66628e-15)
(11.2977 -0.928952 -2.83777e-15)
(7.9907 -0.423397 -2.53426e-17)
(4.48966 0.0366859 3.94197e-15)
(3.19021 -0.246326 0)
(3.53568 -0.717649 5.15258e-15)
(4.72689 -1.0443 2.48717e-15)
(3.38329 -1.32296 -1.41201e-15)
(10.0525 12.1386 -5.22845e-17)
(9.5469 10.7394 1.91437e-16)
(9.20175 9.11322 6.92697e-16)
(9.01707 7.33202 0)
(9.09767 5.49815 -7.40884e-16)
(9.44621 3.64052 0)
(10.0763 1.81065 -2.28166e-15)
(10.9622 0.133916 -5.35846e-17)
(12.0479 -1.30143 8.81941e-16)
(13.2704 -2.4681 7.27702e-16)
(14.557 -3.35655 1.03692e-17)
(15.8425 -3.97955 1.21886e-15)
(17.0839 -4.37263 -7.14643e-16)
(18.2519 -4.57867 2.34561e-16)
(19.3309 -4.64094 7.61029e-16)
(20.3205 -4.5984 8.02865e-16)
(21.229 -4.4823 -6.81699e-16)
(22.068 -4.31536 1.70325e-17)
(22.8525 -4.11273 0)
(23.5979 -3.87779 5.93477e-16)
(24.3166 -3.6075 2.31266e-17)
(25.0158 -3.28967 -3.25141e-16)
(25.6943 -2.90748 0)
(26.3327 -2.43923 3.27341e-17)
(26.8908 -1.89198 0)
(27.3433 -1.30972 1.7888e-16)
(27.6982 -0.717113 0)
(27.97 -0.123074 -7.44023e-17)
(28.1656 0.464179 3.7173e-18)
(28.2884 1.03307 -2.56309e-18)
(28.3422 1.56665 3.46339e-16)
(28.3317 2.05833 1.06566e-17)
(28.2573 2.50805 0)
(28.1201 2.91526 -1.08273e-15)
(27.9041 3.2797 -1.57558e-17)
(27.6097 3.59598 1.27717e-15)
(27.1313 3.86181 -2.17195e-15)
(26.4978 4.02234 -3.53111e-19)
(24.8797 3.88839 0)
(12.319 12.592 -4.49879e-17)
(12.9992 13.7312 -3.62997e-17)
(13.8648 14.9016 1.21345e-16)
(14.8969 16.0343 -3.60834e-16)
(16.0771 17.0555 6.86566e-17)
(17.4237 17.9663 3.50824e-17)
(18.9029 18.7217 5.95216e-17)
(20.4794 19.2832 0)
(22.1274 19.6368 5.44918e-16)
(23.8057 19.7681 3.21227e-16)
(25.4763 19.6723 0)
(27.105 19.3542 7.62494e-16)
(28.6569 18.825 -4.32229e-16)
(30.1002 18.0995 1.20606e-15)
(31.4063 17.1992 0)
(32.5493 16.1508 -2.19044e-15)
(33.5076 14.9824 2.14923e-15)
(34.2849 13.6916 -1.38305e-16)
(34.8758 12.2969 0)
(35.2706 10.8442 2.35677e-15)
(35.4671 9.38911 -2.35195e-15)
(35.486 7.99612 -1.19868e-16)
(35.4213 6.69965 -1.79221e-15)
(35.4636 5.49074 -1.63941e-15)
(35.7186 4.35376 0)
(36.1 3.308 0)
(36.3727 2.37114 -1.69698e-16)
(36.04 1.51917 -1.83767e-17)
(34.2541 0.703946 1.11956e-15)
(30.2613 -0.0418016 -2.93586e-17)
(24.7761 -0.620542 2.88504e-17)
(19.5752 -0.994566 3.01929e-15)
(15.1718 -0.987665 0)
(10.8438 -0.472937 7.49497e-15)
(7.242 -0.197001 -2.55601e-17)
(5.84443 -0.665692 0)
(6.05705 -1.24393 1.36694e-17)
(7.08869 -1.57384 0)
(5.98138 -1.97524 1.23923e-15)
(11.7857 11.4293 6.65325e-17)
(11.347 10.2138 -3.52473e-16)
(11.0284 8.79892 -5.2227e-17)
(10.8297 7.24854 1.403e-15)
(10.8409 5.6469 -2.07907e-15)
(11.0712 4.00559 -1.96859e-15)
(11.5359 2.37317 1.75086e-15)
(12.2167 0.855152 -1.59434e-15)
(13.0743 -0.477451 -6.82326e-16)
(14.0651 -1.60226 -5.90541e-16)
(15.1336 -2.5062 1.1308e-15)
(16.2275 -3.19166 -1.03955e-15)
(17.3107 -3.6813 -4.3511e-16)
(18.3558 -4.0048 4.27153e-16)
(19.3444 -4.19151 -8.65084e-16)
(20.2699 -4.27172 1.69828e-16)
(21.134 -4.26994 0)
(21.9425 -4.20488 -5.27535e-16)
(22.7052 -4.08895 1.78219e-16)
(23.4333 -3.92701 -6.32789e-16)
(24.1365 -3.71736 0)
(24.8206 -3.45174 2.83123e-16)
(25.4837 -3.11778 1.76051e-16)
(26.1092 -2.70237 -3.48588e-17)
(26.6633 -2.21328 0)
(27.1211 -1.68697 1.15818e-16)
(27.4853 -1.15037 0)
(27.7673 -0.613814 0)
(27.9732 -0.082379 0)
(28.1051 0.439016 -1.50184e-16)
(28.1666 0.951161 0)
(28.1624 1.45639 0)
(28.0941 1.95014 1.15541e-15)
(27.9653 2.42237 1.07233e-15)
(27.7639 2.86228 0)
(27.4967 3.2575 1.18548e-15)
(27.0694 3.59966 7.5005e-17)
(26.5343 3.81758 0)
(25.1541 3.76833 -3.3975e-15)
(13.736 11.841 6.01262e-17)
(14.3434 12.8489 -4.25323e-17)
(15.1146 13.8906 0)
(16.0303 14.9019 1.39212e-17)
(17.0721 15.8165 1.69674e-16)
(18.2643 16.6417 -3.24912e-17)
(19.5778 17.3355 3.63433e-17)
(20.9852 17.8635 -1.9117e-16)
(22.4693 18.2109 -5.60457e-17)
(23.9971 18.3611 5.82534e-16)
(25.5371 18.3047 -2.1803e-16)
(27.0608 18.0401 5.63176e-16)
(28.5354 17.5709 2.89981e-16)
(29.9306 16.9052 2.03747e-16)
(31.2177 16.057 0)
(32.369 15.0459 -4.72773e-16)
(33.3642 13.8928 -1.07574e-15)
(34.1757 12.6413 -4.03284e-15)
(34.777 11.3479 1.19492e-15)
(35.1628 10.0585 -1.51456e-15)
(35.345 8.81583 -2.3385e-16)
(35.3572 7.64771 0)
(35.2392 6.53905 1.61181e-15)
(35.0273 5.43311 1.0194e-16)
(34.769 4.31022 -4.71436e-17)
(34.5417 3.23087 -6.52148e-16)
(34.4784 2.27816 1.47433e-16)
(34.6383 1.49283 2.93761e-16)
(34.753 0.842771 -1.04005e-15)
(33.8314 0.239861 -5.3148e-17)
(30.6146 -0.373936 1.64434e-15)
(25.5104 -0.8862 2.61359e-15)
(19.8397 -0.967159 0)
(14.3864 -0.541575 2.21383e-17)
(10.3794 -0.458198 -2.98885e-15)
(8.69792 -1.09574 0)
(8.64299 -1.7647 -7.92097e-15)
(9.4084 -2.08734 0)
(8.33894 -2.56029 -1.16096e-15)
(13.2538 10.8143 -6.30348e-17)
(12.8533 9.74798 1.39161e-16)
(12.549 8.50263 -3.24011e-16)
(12.3408 7.13548 0)
(12.305 5.71864 8.18223e-16)
(12.453 4.25361 2.99173e-15)
(12.7986 2.78518 0)
(13.328 1.40492 -1.2103e-15)
(14.0133 0.172908 -1.12656e-15)
(14.8239 -0.89193 1.09359e-15)
(15.7176 -1.77484 -3.52122e-17)
(16.6527 -2.47108 4.59508e-16)
(17.6007 -2.99453 3.81662e-17)
(18.5375 -3.36545 1.11818e-15)
(19.4447 -3.60366 9.55064e-16)
(20.3126 -3.73225 -8.66163e-16)
(21.1381 -3.77137 1.14008e-16)
(21.9223 -3.73789 -2.07585e-16)
(22.6699 -3.6444 9.37504e-17)
(23.3877 -3.49793 4.96942e-16)
(24.0822 -3.29979 6.04017e-17)
(24.7569 -3.04538 -3.09474e-17)
(25.4094 -2.72523 -1.41215e-16)
(26.0252 -2.32855 0)
(26.5758 -1.85911 -3.34782e-18)
(27.0376 -1.34502 -1.89386e-16)
(27.4094 -0.810877 2.84956e-18)
(27.6996 -0.267145 -2.85646e-18)
(27.9133 0.280235 0)
(28.0529 0.824405 1.42069e-16)
(28.1216 1.35712 0)
(28.1237 1.86618 0)
(28.0614 2.34272 -1.07884e-15)
(27.9378 2.77791 -9.52861e-16)
(27.7408 3.16654 0)
(27.4745 3.49722 -1.12599e-15)
(27.0498 3.77012 1.83093e-15)
(26.514 3.88952 9.84166e-20)
(25.2624 3.75403 3.23719e-15)
(14.9271 11.2035 7.39446e-18)
(15.4703 12.106 -3.68332e-17)
(16.159 13.0449 9.01857e-17)
(16.9723 13.9596 -8.68326e-17)
(17.8908 14.7912 -9.60067e-17)
(18.9421 15.5517 0)
(20.0998 16.2044 -2.4794e-17)
(21.3412 16.7186 -2.12528e-17)
(22.656 17.0825 -1.55947e-16)
(24.0165 17.2799 -3.39857e-16)
(25.3982 17.3002 0)
(26.7777 17.1391 -1.00716e-15)
(28.126 16.7962 -9.34934e-16)
(29.4154 16.2755 -2.37239e-15)
(30.6187 15.5873 0)
(31.7088 14.7466 -1.56691e-15)
(32.6605 13.7764 -1.695e-15)
(33.4551 12.6989 1.89916e-15)
(34.0813 11.5307 -1.87259e-15)
(34.531 10.3051 1.73177e-15)
(34.8075 9.06524 2.13035e-16)
(34.9304 7.85762 -1.80981e-15)
(34.9304 6.70242 0)
(34.8109 5.57306 -1.55346e-15)
(34.5348 4.44201 9.11225e-17)
(34.0865 3.34026 6.94206e-16)
(33.5586 2.33817 0)
(33.154 1.49469 -2.3091e-17)
(33.1084 0.837986 4.65315e-17)
(33.367 0.332969 1.67961e-15)
(32.8809 -0.158965 -1.47507e-15)
(30.0944 -0.662801 -2.45241e-15)
(24.7631 -0.846202 1.91931e-15)
(18.5689 -0.599922 -3.56299e-18)
(13.9579 -0.73612 2.7866e-15)
(11.805 -1.53195 5.30529e-15)
(11.3372 -2.27498 3.77998e-15)
(11.7282 -2.58489 -3.29529e-17)
(10.5412 -3.09092 1.04969e-17)
(14.4908 10.2856 2.48641e-17)
(14.1248 9.33771 2.43266e-16)
(13.8354 8.22808 2.84285e-16)
(13.6238 7.00768 -6.00238e-16)
(13.5559 5.74066 -1.96715e-15)
(13.6446 4.42173 5.02853e-16)
(13.9027 3.09236 1.04174e-15)
(14.3194 1.83315 2.5354e-15)
(14.8735 0.695712 9.73054e-16)
(15.5425 -0.305224 -9.0469e-16)
(16.2935 -1.15561 -8.30432e-18)
(17.0929 -1.84837 -3.9741e-16)
(17.9187 -2.39312 0)
(18.751 -2.80408 -1.07533e-17)
(19.5731 -3.09455 -5.97854e-16)
(20.3746 -3.28164 2.48218e-16)
(21.1502 -3.38082 -2.44693e-16)
(21.8974 -3.40564 0)
(22.6174 -3.36648 3.2961e-16)
(23.3136 -3.26986 -5.22103e-16)
(23.9899 -3.11724 0)
(24.6478 -2.90524 3.1009e-16)
(25.2843 -2.62633 0)
(25.8867 -2.27277 -3.38359e-18)
(26.4304 -1.84818 3.3842e-18)
(26.8933 -1.37547 7.58849e-17)
(27.2709 -0.878118 6.52611e-19)
(27.5688 -0.368749 2.39646e-18)
(27.7913 0.144213 -1.79262e-18)
(27.9407 0.652001 1.19683e-16)
(28.0195 1.14534 2.5163e-16)
(28.0327 1.62104 -4.85547e-16)
(27.9818 2.0745 -1.55955e-17)
(27.8695 2.49936 3.63598e-17)
(27.6833 2.89067 0)
(27.4266 3.2378 -1.12184e-17)
(27.013 3.53689 -8.2107e-16)
(26.49 3.68829 -1.55384e-17)
(25.3183 3.59516 2.90478e-15)
(15.9554 10.646 9.60824e-18)
(16.4494 11.4599 5.7821e-17)
(17.0746 12.3098 0)
(17.8097 13.139 -1.67144e-17)
(18.6343 13.8938 -1.08605e-16)
(19.5775 14.5898 0)
(20.6153 15.1929 -7.10429e-18)
(21.7283 15.6765 2.41986e-16)
(22.9107 16.0304 -4.95018e-16)
(24.1401 16.239 1.53286e-16)
(25.3964 16.2913 2.95003e-16)
(26.6616 16.181 1.2497e-15)
(27.9109 15.9041 9.55663e-16)
(29.1197 15.4606 1.21335e-15)
(30.263 14.8557 3.38218e-16)
(31.3146 14.0994 1.15052e-15)
(32.2501 13.2073 1.61618e-15)
(33.0497 12.1997 1.60749e-15)
(33.6903 11.1128 -1.18841e-15)
(34.1601 9.98348 -3.64501e-15)
(34.461 8.84775 0)
(34.6112 7.73494 6.49588e-17)
(34.6416 6.65528 1.40655e-15)
(34.5701 5.58967 1.48131e-15)
(34.3668 4.5183 -8.38502e-17)
(33.9781 3.46328 -6.2151e-16)
(33.3966 2.47897 4.4459e-18)
(32.7048 1.61391 -3.11415e-16)
(32.0924 0.90246 3.19609e-17)
(31.883 0.364425 -3.31899e-15)
(32.1628 -0.0573395 -4.98751e-18)
(31.841 -0.442938 -3.94792e-17)
(28.7226 -0.652975 -1.8635e-15)
(23.0089 -0.621894 -6.36019e-18)
(17.9543 -1.00998 -2.6832e-15)
(15.2015 -1.96469 -1.03597e-14)
(14.1733 -2.76828 3.69145e-15)
(14.0781 -3.06156 1.81322e-15)
(12.6487 -3.57212 -1.01606e-15)
(15.5547 9.81932 -9.28953e-17)
(15.216 8.96911 -3.20746e-16)
(14.9394 7.97186 -2.09865e-16)
(14.7271 6.87241 -5.22371e-16)
(14.6374 5.72942 1.0575e-15)
(14.6827 4.53366 -6.20603e-17)
(14.8752 3.32317 -2.61537e-15)
(15.2062 2.16984 -8.5479e-16)
(15.6587 1.11907 2.95034e-17)
(16.2157 0.182054 0)
(16.8506 -0.628058 -7.57615e-16)
(17.5363 -1.30334 6.88546e-16)
(18.2558 -1.85095 -6.43695e-16)
(18.9935 -2.28104 -3.20008e-16)
(19.735 -2.60201 2.54202e-16)
(20.4711 -2.82607 2.53972e-16)
(21.1952 -2.96431 8.54844e-16)
(21.903 -3.02679 -1.97947e-16)
(22.5933 -3.02179 -3.07931e-16)
(23.2667 -2.95505 0)
(23.9244 -2.82837 -4.09695e-16)
(24.566 -2.63976 -2.58913e-16)
(25.1879 -2.38373 -1.14308e-17)
(25.778 -2.05495 -1.98954e-17)
(26.3149 -1.65655 2.54935e-19)
(26.778 -1.20677 -3.16789e-17)
(27.1605 -0.727106 3.8675e-18)
(27.4653 -0.230823 -3.89879e-17)
(27.6959 0.273024 -1.27486e-17)
(27.8538 0.7755 -1.1006e-16)
(27.9413 1.26838 -1.46709e-17)
(27.9624 1.74331 9.42058e-16)
(27.9189 2.19324 8.32376e-16)
(27.8132 2.61076 8.10485e-16)
(27.6332 2.99117 1.99263e-17)
(27.3824 3.32003 -8.56547e-18)
(26.977 3.59493 6.53217e-16)
(26.4708 3.69613 -8.98435e-16)
(25.3681 3.54439 -2.6761e-15)
(16.8487 10.1539 -3.01229e-17)
(17.3016 10.8925 -2.56766e-17)
(17.8737 11.6664 -1.36846e-16)
(18.5431 12.4224 4.72544e-16)
(19.2891 13.1107 -1.74986e-16)
(20.1408 13.7496 8.49698e-17)
(21.0762 14.3081 -2.19065e-17)
(22.0779 14.7625 0)
(23.1434 15.1056 1.47554e-16)
(24.2535 15.3226 2.16752e-17)
(25.3924 15.4033 -2.45794e-16)
(26.5463 15.3411 -1.14886e-15)
(27.694 15.1304 -5.11754e-16)
(28.8142 14.7691 0)
(29.8846 14.2593 0)
(30.8809 13.6076 0)
(31.7793 12.8263 0)
(32.5589 11.9343 -1.54083e-15)
(33.2019 10.951 1.55335e-15)
(33.6959 9.90304 1.5213e-15)
(34.0378 8.82224 -1.22101e-15)
(34.2368 7.7408 1.06797e-15)
(34.3119 6.67809 -1.10078e-15)
(34.2784 5.63094 -7.98983e-17)
(34.1247 4.58999 -3.73062e-17)
(33.8164 3.57269 6.28108e-16)
(33.3318 2.62129 1.34594e-16)
(32.6831 1.77289 0)
(31.9238 1.04802 0)
(31.2007 0.45654 2.31305e-17)
(30.8896 0.00216248 0)
(31.2767 -0.306171 2.2933e-15)
(30.6573 -0.462688 -1.85981e-15)
(26.8899 -0.604917 -2.832e-15)
(22.1191 -1.25135 5.29396e-15)
(18.8502 -2.37404 5.24419e-15)
(17.16 -3.23433 -3.79162e-15)
(16.4743 -3.51036 -3.67587e-15)
(14.7007 -4.0005 1.02552e-15)
(16.4782 9.404 0)
(16.1628 8.63541 9.08867e-17)
(15.8983 7.73247 3.96104e-16)
(15.6874 6.73426 -1.66013e-15)
(15.5831 5.69562 1.23972e-15)
(15.596 4.60543 -7.89191e-16)
(15.7384 3.49753 2.48848e-17)
(16.0033 2.4372 7.0034e-16)
(16.3764 1.46531 7.03517e-16)
(16.8441 0.59024 0)
(17.3843 -0.176454 3.13254e-16)
(17.9747 -0.826803 -9.46589e-16)
(18.6022 -1.36689 1.44399e-15)
(19.2546 -1.8045 2.52526e-16)
(19.9204 -2.14529 -5.00738e-16)
(20.5918 -2.39786 -4.49851e-16)
(21.2624 -2.5699 -3.97427e-16)
(21.9269 -2.66855 0)
(22.5828 -2.69979 0)
(23.2285 -2.66802 0)
(23.8631 -2.57477 3.84132e-16)
(24.4849 -2.41862 0)
(25.0893 -2.19538 -1.94243e-16)
(25.665 -1.90153 -2.0916e-17)
(26.1931 -1.54007 -5.72684e-17)
(26.6542 -1.12593 2.96284e-17)
(27.0398 -0.678361 0)
(27.3507 -0.211021 3.31766e-17)
(27.5889 0.266366 1.32968e-17)
(27.7557 0.744441 -2.73335e-18)
(27.8528 1.2139 -4.11227e-16)
(27.8836 1.6683 -2.44301e-17)
(27.8498 2.10215 -8.05069e-16)
(27.7534 2.50888 6.85226e-16)
(27.5824 2.88404 0)
(27.3401 3.21344 8.786e-18)
(26.946 3.49247 -7.26687e-17)
(26.4585 3.59947 8.56383e-16)
(25.426 3.46138 -1.19278e-17)
(17.6333 9.71368 2.88034e-17)
(18.0518 10.3876 0)
(18.5795 11.0952 2.46842e-16)
(19.1942 11.7868 -2.23342e-16)
(19.875 12.4159 7.26682e-17)
(20.6509 13.0024 -7.88278e-17)
(21.5009 13.5178 1.371e-17)
(22.4093 13.9416 -4.26167e-17)
(23.3757 14.2678 0)
(24.3838 14.4835 -2.07226e-16)
(25.421 14.5791 -2.50779e-16)
(26.4768 14.5481 2.47085e-16)
(27.5333 14.3839 1.04293e-15)
(28.5729 14.0825 4.58992e-16)
(29.576 13.6434 -1.41164e-15)
(30.5203 13.0701 -1.06397e-15)
(31.3834 12.3711 8.62824e-16)
(32.1452 11.5602 6.59874e-16)
(32.7872 10.6571 -3.34662e-16)
(33.2937 9.68886 3.39854e-16)
(33.6589 8.68348 8.57886e-16)
(33.8879 7.66699 1.58038e-16)
(33.9939 6.65601 -1.51004e-16)
(33.9876 5.65179 -9.99428e-16)
(33.8624 4.65112 0)
(33.5981 3.67115 -5.28772e-16)
(33.1865 2.75094 -2.52238e-16)
(32.637 1.925 -2.30258e-16)
(31.9669 1.21213 -8.39661e-16)
(31.1859 0.60541 3.08819e-15)
(30.3705 0.0969764 1.24942e-15)
(30.1825 -0.226887 1.62486e-17)
(30.677 -0.34011 1.03478e-17)
(29.3475 -0.570686 0)
(25.8722 -1.42908 -2.72916e-15)
(22.5301 -2.72017 0)
(20.2296 -3.64789 0)
(18.8997 -3.91748 1.93846e-15)
(16.7079 -4.36316 -2.05332e-17)
(17.2882 9.02971 -9.45215e-17)
(16.9931 8.33057 2.89806e-16)
(16.7396 7.50831 2.06655e-17)
(16.5314 6.59645 3.65598e-16)
(16.4174 5.64702 -1.04737e-15)
(16.4063 4.64819 6.31565e-16)
(16.5098 3.62959 5.41278e-18)
(16.723 2.65155 -5.8846e-16)
(17.0332 1.75112 -5.58084e-16)
(17.429 0.934474 -5.77734e-16)
(17.8917 0.211931 -1.09416e-15)
(18.4023 -0.408999 0)
(18.9507 -0.934075 -5.27264e-16)
(19.5276 -1.36974 -1.50973e-17)
(20.1239 -1.7197 0)
(20.7334 -1.99027 -4.06254e-16)
(21.3507 -2.18631 -1.91212e-16)
(21.9705 -2.31249 -1.71928e-16)
(22.5895 -2.37268 5.55682e-16)
(23.2049 -2.36974 4.67943e-16)
(23.8144 -2.30443 -4.23378e-17)
(24.4147 -2.17561 3.07228e-16)
(25.0006 -1.98008 3.87842e-17)
(25.5615 -1.71541 -2.16693e-17)
(26.0799 -1.38444 5.18859e-17)
(26.5376 -0.999326 2.07099e-18)
(26.925 -0.576851 0)
(27.2408 -0.130365 0)
(27.4858 0.330104 2.32168e-18)
(27.6606 0.795059 -7.69296e-18)
(27.7662 1.25522 3.68612e-16)
(27.8054 1.70275 -2.40951e-17)
(27.7799 2.13059 -7.05639e-16)
(27.6912 2.53126 -6.50834e-16)
(27.528 2.89985 -1.40332e-17)
(27.2932 3.21947 6.08662e-18)
(26.9111 3.4847 -9.69574e-16)
(26.4431 3.56454 -8.33657e-16)
(25.4847 3.40598 1.0939e-17)
(18.3274 9.3164 1.14206e-17)
(18.7164 9.93402 0)
(19.2059 10.5835 -1.18042e-16)
(19.7739 11.2182 0)
(20.3991 11.7951 1.00174e-16)
(21.1101 12.3343 -9.63512e-17)
(21.8869 12.8102 -1.84952e-17)
(22.715 13.2043 3.98359e-17)
(23.5953 13.5124 0)
(24.5137 13.723 -1.06053e-16)
(25.46 13.8279 2.5547e-16)
(26.4265 13.8206 -5.49657e-16)
(27.3982 13.6944 -3.23431e-16)
(28.3604 13.4448 -3.47078e-16)
(29.2961 13.0694 8.99268e-16)
(30.1855 12.5694 1.01044e-15)
(31.0082 11.9506 -1.11855e-15)
(31.7443 11.224 -1.14293e-15)
(32.3769 10.4048 0)
(32.89 9.51321 3.10886e-16)
(33.2749 8.57307 -5.98246e-16)
(33.5324 7.60919 1.44047e-16)
(33.6697 6.64039 8.60321e-19)
(33.6932 5.67398 2.3585e-15)
(33.5974 4.71111 -1.2949e-16)
(33.3672 3.76623 7.99164e-17)
(33 2.87354 2.3347e-16)
(32.5129 2.06516 2.44789e-16)
(31.9306 1.36239 7.22721e-16)
(31.2691 0.762629 -1.4234e-15)
(30.4262 0.230501 -1.15527e-15)
(29.6501 -0.148954 -4.41471e-15)
(29.8833 -0.281272 3.55135e-15)
(30.0967 -0.545736 -4.77586e-17)
(28.4548 -1.52315 2.80019e-15)
(25.7409 -2.9479 -1.19729e-16)
(23.1596 -3.96312 8.16149e-17)
(21.2615 -4.25177 -2.07131e-17)
(18.6381 -4.63157 9.43604e-16)
(18.0046 8.68977 5.01318e-17)
(17.7271 8.05036 -1.42266e-16)
(17.4842 7.2978 2.65862e-16)
(17.2796 6.46066 0)
(17.1591 5.58872 5.88151e-16)
(17.13 4.6695 0)
(17.2034 3.72956 0)
(17.3756 2.82468 0)
(17.6355 1.98899 1.02559e-15)
(17.973 1.2269 -4.84251e-16)
(18.3719 0.547703 5.45486e-16)
(18.8156 -0.0416066 0)
(19.2962 -0.546865 0)
(19.8067 -0.973986 -4.44644e-16)
(20.3397 -1.3256 0)
(20.8911 -1.60638 3.7879e-16)
(21.4564 -1.81951 5.16499e-18)
(22.0311 -1.96762 0)
(22.6115 -2.05271 -3.99251e-16)
(23.1943 -2.07628 -5.58924e-16)
(23.776 -2.03833 -3.65342e-16)
(24.3526 -1.93753 -2.79548e-16)
(24.9184 -1.77102 4.20217e-16)
(25.4631 -1.53704 0)
(25.9703 -1.23834 8.00776e-17)
(26.4228 -0.884808 2.73151e-17)
(26.8104 -0.491077 -1.35747e-17)
(27.1299 -0.0700011 0)
(27.381 0.36808 6.66922e-18)
(27.5634 0.81344 6.7093e-17)
(27.6777 1.25639 -3.18576e-16)
(27.7259 1.68881 -2.31751e-17)
(27.7094 2.10391 6.41557e-16)
(27.6295 2.49419 -5.25008e-16)
(27.4754 2.85428 -3.81864e-18)
(27.2496 3.1665 -1.22655e-17)
(26.8816 3.42382 8.0748e-16)
(26.4329 3.49352 7.71307e-16)
(25.5472 3.33426 3.83815e-15)
(18.9459 8.95505 8.1878e-18)
(19.309 9.52313 -3.52124e-17)
(19.7654 10.1212 0)
(20.2928 10.7053 -1.52124e-16)
(20.8703 11.2353 0)
(21.5255 11.7317 0)
(22.2391 12.171 2.26528e-17)
(22.9978 12.5366 4.87483e-17)
(23.8035 12.8256 1.4593e-16)
(24.6433 13.0279 5.04933e-16)
(25.5094 13.1365 3.35774e-16)
(26.3958 13.1454 4.33002e-16)
(27.2902 13.0483 0)
(28.1805 12.8396 9.78243e-16)
(29.0523 12.5164 -3.53364e-16)
(29.8882 12.0779 0)
(30.6697 11.5275 9.21679e-16)
(31.3781 10.8729 1.08704e-15)
(31.9976 10.1264 0)
(32.5112 9.30586 1.09159e-15)
(32.9083 8.43197 -1.06939e-15)
(33.1865 7.52642 0)
(33.3487 6.607 -1.28121e-16)
(33.3986 5.68392 2.1744e-17)
(33.3317 4.76181 6.04851e-17)
(33.1354 3.85334 9.17404e-16)
(32.8064 2.98797 -3.33607e-18)
(32.3614 2.1956 -2.41714e-17)
(31.8261 1.49723 -2.00896e-17)
(31.2457 0.902273 4.31874e-17)
(30.5569 0.371738 1.16807e-15)
(29.6607 -0.0521784 4.05838e-15)
(29.2823 -0.24565 4.0237e-17)
(29.7286 -0.536228 -2.91648e-15)
(29.4422 -1.53534 -2.82451e-15)
(27.7977 -3.01516 -5.80403e-15)
(25.4758 -4.11932 -4.77354e-15)
(23.3414 -4.471 8.04155e-17)
(20.3793 -4.77169 -1.12934e-15)
(18.6425 8.37861 -9.99421e-17)
(18.3807 7.79146 -3.33407e-16)
(18.1477 7.09973 6.31725e-16)
(17.9475 6.32807 0)
(17.823 5.52398 9.15332e-16)
(17.7806 4.67508 0)
(17.8303 3.80484 -4.22971e-16)
(17.9698 2.96543 1.67427e-15)
(18.1891 2.18837 -1.26215e-15)
(18.4789 1.47709 0)
(18.8249 0.839686 8.77293e-16)
(19.2124 0.282605 8.25056e-16)
(19.635 -0.200104 0)
(20.0872 -0.614021 -7.69452e-16)
(20.5635 -0.961257 1.77714e-16)
(21.061 -1.24579 -1.77976e-16)
(21.5767 -1.46955 1.6594e-16)
(22.1067 -1.63367 2.78607e-16)
(22.6478 -1.7387 -1.60153e-17)
(23.1965 -1.78481 3.04822e-16)
(23.7487 -1.7711 7.37936e-17)
(24.3 -1.69583 -7.76864e-17)
(24.8444 -1.55626 -2.03619e-16)
(25.3717 -1.35088 1.51095e-16)
(25.8666 -1.08212 -7.08794e-17)
(26.3124 -0.758165 -3.04294e-17)
(26.6986 -0.391549 1.2822e-17)
(27.0206 0.00563046 5.88e-19)
(27.2767 0.422991 -6.90495e-18)
(27.4661 0.850805 -6.35421e-17)
(27.5885 1.27923 1.24076e-17)
(27.6452 1.69964 -2.24706e-17)
(27.6375 2.10436 -5.51465e-16)
(27.5664 2.48514 5.3229e-16)
(27.4215 2.83589 -1.11164e-17)
(27.205 3.1374 5.44988e-16)
(26.8523 3.38138 -3.53515e-16)
(26.4245 3.4332 0)
(25.6115 3.26091 -3.64367e-15)
(19.5 8.62423 1.8143e-17)
(19.8404 9.14833 0)
(20.2674 9.70052 0)
(20.7593 10.2394 2.59699e-16)
(21.2949 10.7275 -2.06223e-17)
(21.9014 11.1851 0)
(22.56 11.5906 0)
(23.2581 11.9293 -9.57162e-17)
(23.9982 12.1993 -1.20487e-17)
(24.7689 12.3918 -1.87973e-17)
(25.5634 12.5006 -7.79499e-16)
(26.3778 12.5206 -2.35334e-16)
(27.2016 12.4458 4.63329e-16)
(28.0251 12.2709 -4.48126e-17)
(28.8361 11.992 0)
(29.6194 11.6071 0)
(30.3588 11.1179 -2.50809e-15)
(31.0368 10.5294 -4.80315e-16)
(31.6383 9.85154 4.96671e-16)
(32.1473 9.09799 -1.05485e-15)
(32.5515 8.28643 2.00812e-15)
(32.8456 7.43619 9.52699e-16)
(33.0293 6.5647 -9.23772e-16)
(33.1033 5.68443 -1.04737e-15)
(33.0639 4.80255 1.65748e-16)
(32.9009 3.93016 -9.00454e-16)
(32.6102 3.09232 -1.01535e-16)
(32.2051 2.31703 2.24537e-17)
(31.7059 1.62329 -2.21422e-17)
(31.1559 1.02578 7.35916e-17)
(30.5714 0.500402 -2.61932e-17)
(29.8119 0.0556916 -2.01164e-15)
(29.1351 -0.205092 -6.86798e-17)
(29.1754 -0.530685 8.92244e-17)
(29.2602 -1.49017 0)
(28.3798 -2.92677 6.12543e-15)
(26.5815 -4.07116 5.28301e-15)
(24.672 -4.51117 0)
(21.7178 -4.73783 0)
(19.2141 8.09225 0)
(18.9663 7.55109 2.93236e-16)
(18.7428 6.91305 -9.23407e-16)
(18.5475 6.19926 -3.96544e-16)
(18.421 5.45537 -8.18166e-16)
(18.3684 4.66888 0)
(18.3996 3.8609 0)
(18.5128 3.08044 -7.51616e-16)
(18.699 2.35681 7.61166e-16)
(18.9494 1.69251 0)
(19.2514 1.09474 -3.6764e-16)
(19.5916 0.569589 -3.84733e-16)
(19.9645 0.111055 3.54651e-16)
(20.3658 -0.286577 3.55927e-16)
(20.7914 -0.625287 -6.54783e-16)
(21.2396 -0.908522 0)
(21.7086 -1.13758 -1.3622e-16)
(22.1953 -1.31266 1.35193e-17)
(22.6971 -1.43326 5.72934e-16)
(23.2108 -1.49847 -9.15238e-17)
(23.7323 -1.50645 8.69353e-17)
(24.2569 -1.45502 -5.98229e-17)
(24.7785 -1.34131 8.15293e-17)
(25.2873 -1.16383 -3.17714e-16)
(25.7685 -0.924531 -9.05238e-17)
(26.2062 -0.630112 4.15321e-17)
(26.5894 -0.291319 -1.31578e-18)
(26.9125 0.0806679 0)
(27.1728 0.47562 4.30013e-18)
(27.3684 0.883812 -4.40873e-17)
(27.4986 1.29533 1.22087e-16)
(27.5638 1.70106 -2.69959e-16)
(27.5652 2.0932 1.01177e-15)