/*--------------------------------*- C++ -*----------------------------------*\
| =========                 |                                                 |
| \\      /  F ield         | OpenFOAM: The Open Source CFD Toolbox           |
|  \\    /   O peration     | Version:  2312                                  |
|   \\  /    A nd           | Website:  www.openfoam.com                      |
|    \\/     M anipulation  |                                                 |
\*---------------------------------------------------------------------------*/
FoamFile
{
    version     2.0;
    format      ascii;
    arch        "LSB;label=32;scalar=64";
    class       volScalarField;
    location    "400";
    object      div(phi);
}
// * * * * * * * * * * * * * * * * * * * * * * * * * * * * * * * * * * * * * //

dimensions      [0 0 -1 0 0 0 0];

internalField   nonuniform List<scalar> 
10720
(
1.46679e-06
-1.3192e-06
6.74854e-07
-8.01891e-07
3.11597e-07
1.38593e-08
4.07706e-07
3.77007e-07
2.31918e-07
2.56748e-09
-7.5053e-08
-2.78888e-07
-2.98332e-07
-3.41795e-07
-2.20103e-07
-2.11362e-07
-9.57725e-08
-1.51655e-07
2.36819e-08
-9.68983e-08
3.27604e-07
2.06507e-07
3.24826e-09
2.1422e-07
1.06577e-05
6.09801e-06
-1.94723e-05
6.65734e-06
1.70301e-05
7.12923e-06
-9.37211e-06
6.20611e-06
2.31062e-06
-1.69572e-05
2.07406e-05
2.03849e-05
-2.2072e-06
3.36957e-05
0.000390361
-1.33856e-06
8.48823e-07
-4.75933e-07
1.24143e-07
4.11412e-08
-3.7543e-08
3.25106e-08
6.17426e-08
-7.62433e-08
7.69054e-08
6.10923e-08
1.91174e-07
1.58903e-07
2.18173e-07
1.60784e-07
1.95832e-07
1.30396e-07
1.80022e-07
7.3421e-08
1.38265e-07
-8.21775e-08
-4.0357e-08
-5.34799e-07
-6.57237e-07
-6.40209e-07
-6.10112e-07
-4.59053e-07
-5.86422e-07
5.14461e-08
-5.9824e-07
-5.69068e-07
-1.75693e-06
1.98883e-07
4.60489e-06
-5.02656e-06
-1.34955e-05
1.43271e-05
-2.13704e-06
-7.62966e-06
6.79032e-07
-4.08349e-07
5.06703e-07
-5.83678e-07
4.24292e-07
1.04705e-07
4.58428e-07
3.03946e-07
1.32937e-07
-2.61134e-08
-1.24666e-07
-2.98718e-07
-2.8851e-07
-3.2301e-07
-2.01378e-07
-2.10805e-07
-8.95597e-08
-1.14691e-07
2.91842e-08
1.73022e-10
3.0992e-07
4.12146e-07
5.98215e-07
4.36171e-07
2.38937e-06
2.39824e-06
-4.13164e-06
1.78843e-06
6.6268e-06
4.34228e-06
-6.14767e-06
7.54026e-06
4.39957e-06
-6.68008e-06
1.23424e-05
1.38288e-05
-5.92648e-07
3.23048e-05
0.000231957
-6.28372e-08
4.31565e-07
-1.86375e-07
1.69811e-07
-1.3939e-07
1.23273e-07
4.46108e-08
-1.54161e-08
-5.02585e-08
2.35066e-08
5.34802e-08
1.49829e-07
1.37959e-07
1.94676e-07
1.48918e-07
1.90511e-07
1.33904e-07
1.74106e-07
8.70952e-08
1.09003e-07
-6.58029e-08
-1.11961e-07
-5.25142e-07
-6.73756e-07
-7.78359e-07
-6.93693e-07
-6.07922e-07
-5.66982e-07
-2.05939e-07
-7.64029e-07
-7.48242e-07
-1.81092e-06
-9.36122e-07
2.90635e-06
-2.85314e-06
-1.04665e-05
1.29058e-05
-5.53257e-06
-4.88499e-06
-1.47803e-06
1.02246e-06
-9.11303e-07
6.43209e-07
-1.05673e-07
4.8119e-07
3.50427e-07
2.18255e-07
2.85837e-08
-4.57654e-08
-2.24639e-07
-2.57181e-07
-3.5378e-07
-2.71723e-07
-2.65391e-07
-1.77187e-07
-1.60768e-07
-1.21423e-07
-9.35592e-08
-8.10221e-08
2.3159e-08
1.0975e-07
-3.77933e-08
6.83636e-08
4.30736e-06
2.37557e-06
-1.12573e-05
3.44713e-06
1.06782e-05
4.15412e-06
-5.21099e-06
1.94001e-06
-1.23198e-07
-1.10751e-05
1.14771e-05
9.47862e-06
-6.7561e-07
7.27205e-06
0.000114682
1.05235e-06
-4.50889e-07
2.85301e-07
-1.36367e-07
1.50992e-07
-3.29603e-08
7.43653e-08
-4.93069e-08
2.11888e-08
5.36386e-10
1.24291e-07
1.09575e-07
1.87437e-07
1.48357e-07
1.81318e-07
1.39404e-07
1.52209e-07
1.21243e-07
1.11915e-07
7.68792e-08
1.07608e-08
-6.64946e-08
-3.00095e-07
-4.41286e-07
-4.48278e-07
-4.22752e-07
-4.07059e-07
-4.58019e-07
6.65487e-08
-3.42738e-07
-3.80753e-07
-1.71146e-06
7.39362e-07
5.51681e-06
-5.4927e-06
-1.45123e-05
1.54757e-05
-1.91437e-06
-5.36727e-06
9.39385e-07
-4.92423e-07
3.60523e-07
-7.0034e-08
4.0113e-07
4.04624e-07
2.64285e-07
1.20839e-07
-1.18074e-08
-1.06599e-07
-2.51427e-07
-2.79022e-07
-3.44751e-07
-2.49127e-07
-2.73289e-07
-1.56553e-07
-1.89968e-07
-7.30697e-08
-9.46016e-08
3.76598e-08
1.44632e-07
4.14458e-07
3.69589e-07
5.50265e-07
1.86886e-06
1.97445e-06
-2.08638e-06
1.31414e-06
4.47898e-06
3.55048e-06
-4.44684e-06
6.00314e-06
3.95638e-06
-4.37476e-06
9.33262e-06
1.00446e-05
-4.80963e-07
2.22087e-05
0.000121612
-3.2648e-07
1.3212e-07
-7.54284e-08
3.94185e-09
-2.4326e-08
1.93186e-07
1.73929e-08
-1.67319e-08
-1.92521e-08
1.87715e-08
8.54843e-08
1.02501e-07
1.58242e-07
1.27805e-07
1.70025e-07
1.21049e-07
1.60537e-07
1.03089e-07
1.24808e-07
4.19928e-08
5.37614e-09
-1.46605e-07
-3.35035e-07
-5.45197e-07
-6.18624e-07
-6.58053e-07
-5.90703e-07
-5.79635e-07
-2.82094e-07
-6.4512e-07
-7.43797e-07
-1.87928e-06
-1.05025e-06
3.19435e-06
-2.95953e-06
-1.17628e-05
1.50842e-05
-7.33119e-06
-4.26482e-06
6.87674e-07
5.25521e-08
1.31647e-07
2.79726e-07
3.63838e-07
3.21536e-07
2.13529e-07
2.88549e-08
-2.67798e-08
-1.99308e-07
-2.12945e-07
-3.3252e-07
-2.63022e-07
-2.95139e-07
-2.02829e-07
-2.1538e-07
-1.38127e-07
-1.48319e-07
-9.98944e-08
-1.09321e-07
-1.37269e-08
1.435e-07
-2.80673e-08
1.76737e-07
3.35359e-06
1.51263e-06
-1.02847e-05
2.07389e-06
1.14532e-05
4.27563e-06
-6.37006e-06
1.72699e-06
-3.89794e-07
-1.31146e-05
1.09868e-05
8.67315e-06
-1.06264e-06
2.84763e-06
5.81784e-05
-1.62198e-07
3.44473e-08
-1.96928e-07
1.06148e-08
1.88008e-07
3.42225e-08
2.32869e-08
4.0994e-09
-3.06724e-08
6.50856e-08
6.2363e-08
1.52022e-07
1.19106e-07
1.71741e-07
1.22189e-07
1.54716e-07
1.05787e-07
1.3065e-07
7.84009e-08
9.16709e-08
8.16288e-09
-1.12665e-08
-1.91846e-07
-2.2688e-07
-3.3944e-07
-2.88177e-07
-3.49101e-07
-3.41108e-07
3.45976e-08
-1.4393e-08
-2.66294e-07
-1.57451e-06
9.15351e-07
6.34524e-06
-5.4822e-06
-1.65185e-05
1.78427e-05
-3.76113e-06
-3.5989e-06
2.51943e-08
2.25045e-07
3.67374e-07
1.94671e-07
3.44326e-07
2.63642e-07
1.02719e-07
2.4286e-08
-9.45337e-08
-2.03816e-07
-2.44557e-07
-3.05284e-07
-2.49031e-07
-2.73119e-07
-1.80957e-07
-2.12978e-07
-1.14437e-07
-1.53247e-07
-4.40782e-08
-5.61297e-08
1.75161e-07
2.72691e-07
3.24253e-07
4.16537e-07
1.56955e-06
1.62209e-06
-1.03714e-06
1.09214e-06
3.8111e-06
3.47839e-06
-4.19014e-06
5.89821e-06
4.21951e-06
-4.6257e-06
9.79928e-06
1.04087e-05
-1.26148e-06
1.93564e-05
7.95102e-05
2.04139e-08
-1.59876e-07
-1.38485e-07
3.99281e-08
9.30543e-08
1.6293e-07
3.28293e-08
-2.21157e-08
-3.29359e-09
3.25308e-08
7.64589e-08
1.20542e-07
1.19746e-07
1.42611e-07
1.14761e-07
1.3367e-07
1.00668e-07
1.13589e-07
7.39643e-08
5.60208e-08
-1.04216e-08
-1.00942e-07
-2.3867e-07
-3.97193e-07
-4.96251e-07
-5.85172e-07
-5.66484e-07
-5.95739e-07
-3.1913e-07
-5.45051e-07
-6.95454e-07
-1.76853e-06
-1.05053e-06
2.9452e-06
-2.57216e-06
-1.11848e-05
1.49774e-05
-8.40039e-06
-3.41121e-06
-5.13433e-07
5.35713e-07
1.03967e-07
3.22623e-07
2.59535e-07
1.63343e-07
7.77756e-08
-3.42819e-09
-1.56692e-07
-1.6866e-07
-2.83933e-07
-2.23201e-07
-2.73238e-07
-1.90531e-07
-2.17506e-07
-1.45415e-07
-1.60397e-07
-1.03482e-07
-1.21555e-07
-8.65634e-08
-1.94994e-08
1.45915e-07
-4.81461e-08
4.03463e-08
1.99192e-06
9.15434e-07
-8.48071e-06
1.30382e-06
1.15792e-05
4.56158e-06
-7.18834e-06
1.90989e-06
-1.30559e-06
-1.50902e-05
1.20482e-05
9.97298e-06
-3.90773e-06
1.73779e-06
3.41067e-05
1.92037e-07
-4.19954e-07
-7.36311e-08
8.33478e-08
1.78705e-07
5.72169e-08
4.64387e-08
-2.14027e-08
1.12171e-08
2.17525e-08
1.05896e-07
9.4124e-08
1.50738e-07
1.06186e-07
1.41732e-07
9.10632e-08
1.21824e-07
6.9774e-08
1.021e-07
3.46343e-08
6.68229e-08
-4.40609e-08
-2.81543e-08
-1.82034e-07
-1.22497e-07
-2.65268e-07
-1.69052e-07
-3.14494e-07
1.99654e-07
2.06846e-07
-9.50744e-08
-1.49817e-06
1.06024e-06
6.42439e-06
-5.31058e-06
-1.65551e-05
1.94201e-05
-4.86098e-06
-2.04561e-06
1.24948e-06
1.85846e-07
4.25516e-07
2.71922e-07
1.77606e-07
1.27972e-07
5.77352e-08
-2.80421e-08
-1.33093e-07
-1.93785e-07
-2.44293e-07
-2.11242e-07
-2.35299e-07
-1.67779e-07
-1.98609e-07
-1.15218e-07
-1.56631e-07
-7.19335e-08
-1.19212e-07
7.85397e-09
7.75877e-08
2.61485e-07
1.40307e-07
3.21805e-07
1.13928e-06
1.21952e-06
-4.55595e-07
8.89643e-07
2.85551e-06
3.00612e-06
-3.35536e-06
5.17222e-06
4.11468e-06
-4.12946e-06
9.51496e-06
1.09497e-05
-2.36141e-06
1.88255e-05
5.79686e-05
-5.03698e-07
-5.46049e-09
-9.35532e-08
4.66738e-08
1.06607e-07
1.40321e-07
1.85684e-08
-9.70298e-09
-9.07112e-09
3.89506e-08
7.6183e-08
1.1284e-07
1.17883e-07
1.17926e-07
1.05232e-07
1.00492e-07
8.38648e-08
8.34115e-08
5.42286e-08
4.46226e-08
-1.3933e-08
-6.46394e-08
-1.71503e-07
-2.79218e-07
-3.85153e-07
-4.82492e-07
-5.22341e-07
-5.68343e-07
-3.47009e-07
-4.89545e-07
-6.83725e-07
-1.60942e-06
-1.00875e-06
2.61446e-06
-2.23558e-06
-1.00496e-05
1.3998e-05
-8.43377e-06
-2.67206e-06
-2.65494e-07
5.21178e-07
3.28987e-07
2.02489e-07
1.60785e-07
9.13651e-08
8.02379e-08
-7.56554e-08
-1.01484e-07
-2.23864e-07
-1.68926e-07
-2.27891e-07
-1.48653e-07
-1.93882e-07
-1.18793e-07
-1.54375e-07
-8.46646e-08
-1.2124e-07
-6.95315e-08
-1.01375e-07
3.51252e-08
8.17527e-08
-2.65874e-08
-1.9242e-07
1.29478e-06
2.98642e-07
-5.52321e-06
1.23756e-06
1.00782e-05
5.48459e-06
-7.53393e-06
1.85173e-06
-1.43263e-06
-1.58511e-05
1.12256e-05
1.0599e-05
-6.35562e-06
1.4386e-06
2.07328e-05
1.19532e-07
-2.48156e-07
-1.04638e-07
1.00784e-07
1.52222e-07
6.44354e-08
2.68253e-08
-5.43065e-09
-8.29142e-09
4.67539e-08
6.90987e-08
1.22104e-07
1.01199e-07
1.23241e-07
8.43353e-08
1.00839e-07
6.20856e-08
8.29162e-08
4.05689e-08
6.6445e-08
1.1882e-08
3.40261e-08
-4.10476e-08
-2.52773e-08
-9.63471e-08
-7.12446e-08
-1.31335e-07
-1.01533e-07
2.49969e-07
3.84328e-07
3.12246e-08
-1.36732e-06
9.48466e-07
6.50279e-06
-4.8917e-06
-1.69973e-05
1.97982e-05
-5.83004e-06
-8.95991e-07
4.72817e-07
3.65071e-07
2.73123e-07
1.87375e-07
1.03562e-07
1.20854e-07
1.14422e-08
-3.14514e-08
-1.4003e-07
-1.79979e-07
-1.70869e-07
-1.78675e-07
-1.3971e-07
-1.54886e-07
-1.06618e-07
-1.23136e-07
-7.24856e-08
-1.00557e-07
-6.08415e-08
-3.45182e-08
9.57359e-08
1.58585e-07
6.05085e-08
1.97135e-07
8.26598e-07
8.82339e-07
-1.65905e-07
6.83787e-07
2.01237e-06
2.57498e-06
-2.67433e-06
4.48097e-06
3.79145e-06
-3.24883e-06
8.10722e-06
9.94826e-06
-2.93319e-06
1.76968e-05
4.44181e-05
-1.12714e-07
-2.31169e-07
-1.42967e-09
9.37113e-08
1.21052e-07
1.0591e-07
2.23198e-08
-1.59967e-08
1.71318e-09
2.62435e-08
8.91205e-08
9.39392e-08
1.22257e-07
8.88246e-08
1.01203e-07
6.29461e-08
7.93417e-08
4.17772e-08
5.71438e-08
1.17252e-08
9.8871e-09
-6.16889e-08
-9.88727e-08
-2.11807e-07
-2.67266e-07
-3.9176e-07
-4.27724e-07
-5.18466e-07
-3.51641e-07
-4.83243e-07
-6.60487e-07
-1.47427e-06
-9.31402e-07
2.32144e-06
-1.98507e-06
-8.99076e-06
1.2711e-05
-8.13535e-06
-2.18934e-06
5.08742e-07
3.47716e-07
2.05066e-07
1.24217e-07
1.31052e-07
6.9615e-08
3.23284e-08
-4.41947e-08
-1.58437e-07
-1.28657e-07
-1.84579e-07
-1.09468e-07
-1.56206e-07
-8.35564e-08
-1.3108e-07
-5.67951e-08
-1.07583e-07
-3.59935e-08
-1.08404e-07
-7.05947e-09
-2.04902e-08
1.53828e-07
-1.42268e-07
-8.92705e-08
7.30301e-07
5.13381e-07
-2.99546e-06
1.20648e-06
8.34867e-06
6.46267e-06
-8.16092e-06
1.83587e-06
-2.08553e-06
-1.53041e-05
1.03301e-05
1.02288e-05
-8.93126e-06
5.68188e-07
1.5433e-05
-2.4649e-07
-3.81377e-08
-9.07869e-09
1.23357e-07
1.42095e-07
6.43721e-08
2.58876e-08
-7.74596e-09
-9.16467e-11
3.59319e-08
7.8343e-08
1.00197e-07
1.02576e-07
9.18426e-08
7.74325e-08
6.48542e-08
5.53907e-08
4.44526e-08
4.2067e-08
2.90805e-08
3.26395e-08
1.16836e-08
2.01395e-08
-1.1803e-08
1.41034e-08
-2.16284e-08
2.08936e-08
-4.19668e-09
3.41977e-07
4.59335e-07
1.4573e-07
-1.30743e-06
9.83897e-07
6.34012e-06
-4.83308e-06
-1.67999e-05
2.08652e-05
-6.28533e-06
-2.92741e-07
1.28248e-07
1.79791e-07
1.38807e-07
1.27092e-07
8.05469e-08
8.91607e-08
2.82144e-08
-5.99647e-08
-1.05957e-07
-1.46819e-07
-1.32263e-07
-1.2505e-07
-1.01328e-07
-9.78444e-08
-7.48427e-08
-7.58088e-08
-4.79361e-08
-6.98291e-08
-4.10635e-08
-2.90376e-08
9.48041e-08
8.87187e-08
2.04447e-08
1.11849e-07
6.4971e-07
6.47162e-07
-3.4907e-08
3.93958e-07
1.58918e-06
1.97601e-06
-1.9258e-06
3.79649e-06
3.53606e-06
-2.22933e-06
6.90489e-06
8.53997e-06
-3.10863e-06
1.52923e-05
3.2059e-05
8.37983e-08
-5.76437e-08
5.81497e-08
1.25023e-07
1.18532e-07
9.02217e-08
1.6102e-08
-8.11175e-09
-7.95211e-09
4.4867e-08
6.6177e-08
1.09021e-07
8.59586e-08
9.64972e-08
5.89725e-08
6.98217e-08
3.57593e-08
5.21688e-08
1.80016e-08
3.25644e-08
-1.21211e-08
-1.57274e-08
-8.26106e-08
-1.23254e-07
-2.04189e-07
-2.73463e-07
-3.50943e-07
-4.17777e-07
-3.60137e-07
-4.52311e-07
-6.6871e-07
-1.30088e-06
-8.58645e-07
1.91886e-06
-1.79002e-06
-7.79682e-06
1.14735e-05
-7.56032e-06
-1.87529e-06
2.5292e-07
1.20642e-07
1.05099e-07
8.08721e-08
1.13955e-07
6.22592e-08
4.18034e-08
-4.68911e-08
-9.09032e-08
-1.49108e-07
-1.04648e-07
-1.23295e-07
-6.78513e-08
-9.37032e-08
-4.28794e-08
-7.45673e-08
-2.20333e-08
-7.33134e-08
-1.58384e-08
-5.61152e-08
8.43591e-08
4.01605e-08
-3.38772e-08
-1.29856e-07
6.63958e-07
5.92605e-07
-1.33363e-06
1.05426e-06
6.50413e-06
5.60671e-06
-6.88855e-06
8.17804e-07
-2.52161e-06
-1.48802e-05
9.20065e-06
1.02452e-05
-1.02345e-05
5.75712e-07
8.73623e-06
-4.69178e-10
3.55661e-08
9.34178e-08
1.33994e-07
1.30613e-07
5.66962e-08
2.21803e-08
-7.1233e-09
7.48248e-09
3.08494e-08
7.90122e-08
7.89186e-08
9.63161e-08
6.31323e-08
7.01957e-08
3.81399e-08
4.74028e-08
2.31723e-08
3.28197e-08
1.69227e-08
2.50622e-08
1.57009e-08
2.48985e-08
1.8926e-08
4.30575e-08
3.8916e-08
8.22166e-08
8.86093e-08
3.36334e-07
4.37968e-07
1.60036e-07
-9.79165e-07
1.0154e-06
6.09835e-06
-4.41626e-06
-1.6425e-05
2.07872e-05
-6.65626e-06
4.31038e-08
1.01955e-07
7.94905e-08
6.8496e-08
9.82235e-08
6.25803e-08
1.00013e-07
2.47344e-08
-2.42641e-08
-1.12587e-07
-1.07549e-07
-1.31997e-07
-7.41911e-08
-9.38377e-08
-3.76284e-08
-7.12174e-08
-1.34595e-08
-5.92492e-08
-6.2774e-09
-6.2215e-08
3.43825e-08
4.10487e-08
9.60261e-08
-4.49464e-08
1.44143e-07
4.75842e-07
5.26957e-07
-8.70339e-08
3.05966e-07
1.13478e-06
1.50068e-06
-1.20714e-06
3.28101e-06
3.17514e-06
-1.31349e-06
5.69459e-06
7.28822e-06
-3.04808e-06
1.27332e-05
2.09121e-05
5.88119e-08
8.09208e-08
1.06192e-07
1.39388e-07
1.07422e-07
7.26748e-08
1.6556e-08
-1.23221e-08
9.03185e-09
3.21133e-08
7.58299e-08
7.87162e-08
8.42885e-08
6.23828e-08
5.95852e-08
3.74861e-08
4.20806e-08
2.17163e-08
3.21216e-08
9.32996e-09
1.48276e-08
-1.83072e-08
-3.34665e-08
-8.80754e-08
-1.25568e-07
-2.0015e-07
-2.55621e-07
-3.36794e-07
-3.33884e-07
-4.40342e-07
-6.19608e-07
-1.13758e-06
-7.51203e-07
1.56385e-06
-1.55042e-06
-6.69367e-06
1.00172e-05
-6.94946e-06
-1.62954e-06
8.50749e-08
3.64108e-08
6.49788e-08
6.14588e-08
1.1337e-07
5.51251e-08
4.93072e-08
-3.38483e-08
-1.0004e-07
-1.21813e-07
-1.07692e-07
-8.65073e-08
-6.12521e-08
-4.93359e-08
-3.67125e-08
-2.89843e-08
-2.85087e-08
-2.55353e-08
-3.51929e-08
8.59703e-09
3.68283e-08
6.6353e-08
-7.66093e-08
-5.53143e-09
4.74936e-07
6.2836e-07
-6.14945e-07
7.58077e-07
4.17939e-06
4.48726e-06
-5.82429e-06
-8.79619e-08
-2.92505e-06
-1.48806e-05
8.09604e-06
9.94324e-06
-1.1507e-05
4.00814e-07
3.79654e-06
6.97902e-08
8.59069e-08
1.24992e-07
1.26872e-07
1.15259e-07
4.98787e-08
1.70101e-08
1.84769e-09
2.31784e-09
4.16689e-08
4.88801e-08
8.1636e-08
5.34081e-08
6.83905e-08
3.27291e-08
4.76309e-08
1.68015e-08
3.27459e-08
8.5055e-09
2.38846e-08
6.34068e-09
2.22062e-08
1.17549e-08
3.36211e-08
3.49648e-08
6.66464e-08
7.86511e-08
1.25706e-07
2.44959e-07
3.37778e-07
1.67149e-07
-6.33294e-07
9.7025e-07
6.03531e-06
-4.38698e-06
-1.55277e-05
2.07041e-05
-6.63762e-06
1.9562e-07
4.58044e-08
4.29847e-08
4.48316e-08
8.61999e-08
5.03303e-08
1.04564e-07
3.5566e-08
-5.15019e-08
-8.12367e-08
-1.32787e-07
-8.50625e-08
-9.5633e-08
-3.41853e-08
-5.97106e-08
-4.48051e-09
-4.40118e-08
8.08155e-09
-4.61069e-08
1.71831e-08
-1.07549e-08
9.07597e-08
1.33692e-08
1.89451e-08
8.28497e-08
4.3729e-07
3.19648e-07
-2.15776e-08
8.84836e-08
9.59267e-07
9.96257e-07
-5.02407e-07
2.74105e-06
2.76809e-06
-5.85986e-07
4.64273e-06
5.78188e-06
-2.95898e-06
1.02604e-05
1.30175e-05
5.83434e-08
1.02898e-07
1.06229e-07
1.35075e-07
9.51565e-08
6.51166e-08
8.55008e-09
4.9379e-10
5.17405e-09
3.9871e-08
5.61845e-08
6.55599e-08
5.8432e-08
5.06328e-08
3.91334e-08
3.39103e-08
2.35485e-08
2.53676e-08
1.51335e-08
2.07795e-08
5.50129e-09
5.59517e-09
-2.42301e-08
-4.20512e-08
-8.96757e-08
-1.27425e-07
-1.9764e-07
-2.54453e-07
-3.1646e-07
-3.84009e-07
-5.70207e-07
-9.47842e-07
-6.05275e-07
1.23246e-06
-1.34042e-06
-5.32734e-06
8.67711e-06
-6.20298e-06
-1.42954e-06
3.59579e-08
7.31145e-09
5.12778e-08
4.83693e-08
1.14694e-07
6.03564e-08
2.73631e-08
-7.9445e-09
-1.10433e-07
-9.98052e-08
-1.15982e-07
-5.43258e-08
-6.62705e-08
-1.57177e-08
-4.00316e-08
-2.18948e-09
-3.24432e-08
-6.96555e-09
-3.00054e-08
1.58907e-08
2.77954e-08
2.95398e-08
-6.10965e-08
8.26401e-09
3.50124e-07
4.30861e-07
-3.29864e-07
2.07056e-07
2.46816e-06
2.78861e-06
-4.3829e-06
-6.43522e-07
-3.60642e-06
-1.23665e-05
6.38153e-06
9.73899e-06
-1.19419e-05
7.51205e-07
8.76783e-07
6.87652e-08
8.61941e-08
1.23921e-07
1.15246e-07
1.04744e-07
4.07143e-08
1.79877e-08
-3.74612e-09
1.40134e-08
1.90636e-08
5.21796e-08
3.86426e-08
5.64828e-08
2.91656e-08
4.38328e-08
1.62027e-08
3.13797e-08
7.27476e-09
2.13599e-08
1.77668e-09
1.3898e-08
2.46949e-10
1.30209e-08
9.16994e-09
2.92792e-08
3.46515e-08
6.06749e-08
7.39911e-08
1.45271e-07
2.11038e-07
1.36818e-07
-3.88895e-07
1.04845e-06
4.82473e-06
-4.39784e-06
-1.43072e-05
1.9745e-05
-6.40287e-06
2.22558e-07
2.02606e-08
3.60324e-08
3.14289e-08
8.02879e-08
4.99404e-08
9.5104e-08
4.32992e-08
-4.08364e-08
-9.04044e-08
-9.71039e-08
-9.88137e-08
-5.35044e-08
-5.2937e-08
-1.35052e-08
-3.09387e-08
4.89358e-09
-2.76416e-08
1.00886e-08
-2.05654e-08
5.06156e-08
2.81318e-08
5.40798e-08
-2.29091e-08
1.40287e-07
2.87612e-07
2.68275e-07
-9.13231e-08
1.00914e-07
7.14364e-07
7.42536e-07
-1.45045e-08
2.30003e-06
2.28643e-06
1.36964e-07
3.63078e-06
4.3856e-06
-2.7843e-06
8.15354e-06
7.9138e-06
5.14802e-08
9.77451e-08
9.70002e-08
1.24233e-07
8.41911e-08
4.52188e-08
1.21337e-08
-4.30898e-09
1.5386e-08
2.86617e-08
4.45968e-08
4.43192e-08
4.07317e-08
3.57706e-08
2.8217e-08
2.30764e-08
1.86818e-08
1.34464e-08
1.56249e-08
8.39628e-09
1.23784e-08
-1.14005e-09
-5.53734e-09
-3.29816e-08
-5.28553e-08
-9.79972e-08
-1.415e-07
-2.14411e-07
-2.62773e-07
-3.40135e-07
-4.78882e-07
-7.6701e-07
-4.49138e-07
8.59069e-07
-1.11571e-06
-4.01738e-06
7.26362e-06
-5.5022e-06
-1.26386e-06
2.64325e-08
-1.65332e-09
4.40568e-08
4.75109e-08
1.12073e-07
4.56683e-08
4.35185e-08
-2.20577e-08
-6.997e-08
-1.19419e-07
-6.26091e-08
-7.86862e-08
-1.58666e-08
-4.47657e-08
5.4827e-09
-3.29273e-08
6.87299e-09
-3.44807e-08
7.85948e-09
-1.23934e-08
3.89096e-08
-1.75275e-08
-3.24602e-08
-5.25539e-09
2.34709e-07
2.04756e-07
-2.54419e-07
-1.72517e-07
1.30834e-06
1.23399e-06
-2.75224e-06
-1.05201e-06
-2.95451e-06
-9.66848e-06
4.54758e-06
9.75187e-06
-1.16517e-05
8.2348e-07
-6.24193e-07
6.16116e-08
7.88289e-08
1.15037e-07
1.00723e-07
8.12849e-08
4.23891e-08
6.63106e-09
2.67279e-09
-1.24405e-09
2.44448e-08
1.89122e-08
3.9469e-08
2.13781e-08
3.63008e-08
1.45888e-08
2.78485e-08
6.29542e-09
1.97127e-08
3.86033e-10
1.04791e-08
-6.5038e-09
2.71029e-10
-1.17155e-08
-2.22736e-09
-7.19106e-09
6.18368e-09
3.04333e-09
1.64451e-08
3.86509e-08
1.06136e-07
5.59223e-08
-2.13896e-07
7.29169e-07
3.3178e-06
-3.83223e-06
-1.38678e-05
1.80115e-05
-5.83086e-06
2.30145e-07
1.82478e-08
3.12134e-08
2.9147e-08
7.64678e-08
3.24925e-08
1.04545e-07
3.55355e-08
-4.43792e-08
-7.10082e-08
-8.77372e-08
-6.52718e-08
-5.2501e-08
-2.35753e-08
-2.36657e-08
-2.26361e-10
-1.50674e-08
8.0504e-09
-1.47858e-08
2.56709e-08
1.52152e-08
6.51747e-08
8.37357e-09
4.32506e-08
8.87887e-08
2.6016e-07
1.42179e-07
-2.31088e-08
6.59156e-08
5.94578e-07
5.5183e-07
3.72087e-07
1.86172e-06
1.88566e-06
4.84065e-07
2.84611e-06
3.08339e-06
-2.58677e-06
6.26591e-06
4.82053e-06
4.50016e-08
8.91135e-08
8.49255e-08
1.08088e-07
7.46263e-08
3.05165e-08
5.60064e-09
3.45259e-09
9.67396e-09
2.49434e-08
2.89034e-08
2.90915e-08
2.84681e-08
2.35292e-08
2.07523e-08
1.36085e-08
1.07072e-08
7.59622e-09
4.73762e-09
5.39414e-09
-4.72121e-10
-1.95989e-10
-1.33897e-08
-2.19564e-08
-4.80971e-08
-7.19418e-08
-1.21448e-07
-1.69429e-07
-2.26799e-07
-2.727e-07
-4.04919e-07
-5.99629e-07
-3.51261e-07
6.13894e-07
-1.00753e-06
-2.74914e-06
5.91857e-06
-4.68559e-06
-1.09824e-06
1.91599e-08
-8.02015e-09
4.13232e-08
3.66325e-08
1.13658e-07
4.44529e-08
2.15171e-08
1.82712e-08
-8.57785e-08
-5.83926e-08
-7.89461e-08
-2.18383e-08
-4.33368e-08
7.03698e-09
-2.63818e-08
1.5288e-08
-2.48047e-08
1.39229e-08
-2.03527e-08
3.08829e-08
-2.96799e-09
1.38945e-08
-4.73535e-08
3.51011e-08
1.06231e-07
1.08786e-07
-2.68904e-07
-2.25455e-07
4.6141e-07
5.90874e-07
-1.72521e-06
-6.93465e-07
-2.16967e-06
-6.47836e-06
3.43225e-06
8.09479e-06
-1.08021e-05
1.10204e-06
-9.72826e-07
5.54992e-08
7.06993e-08
1.04946e-07
8.75294e-08
6.66636e-08
3.7865e-08
6.51026e-09
-1.13772e-08
6.06636e-09
2.40057e-09
2.18737e-08
1.19117e-08
2.7732e-08
1.01706e-08
2.35042e-08
2.49271e-09
1.52617e-08
-1.22111e-09
9.31581e-09
-6.99074e-09
-2.25901e-09
-1.86575e-08
-1.70173e-08
-2.94371e-08
-2.61248e-08
-3.70555e-08
-3.5751e-08
-4.84472e-08
-2.58641e-08
4.94788e-09
-1.22053e-08
-2.2621e-07
3.38801e-07
2.01301e-06
-3.78153e-06
-1.12231e-05
1.56233e-05
-5.03683e-06
1.48524e-07
9.58507e-09
3.17621e-08
2.15774e-08
7.26132e-08
3.19409e-08
9.40463e-08
5.6127e-08
-4.17214e-08
-3.86847e-08
-5.30953e-08
-4.78662e-08
-2.77515e-08
-1.78986e-08
-6.71285e-10
-2.85263e-09
1.09071e-08
-3.52831e-10
1.88902e-08
1.33928e-08
5.07173e-08
3.84852e-08
5.15109e-08
3.22767e-08
1.21021e-07
1.72091e-07
1.32792e-07
-1.00564e-08
1.13738e-07
4.68685e-07
5.11362e-07
5.36044e-07
1.51532e-06
1.50401e-06
7.08788e-07
2.24218e-06
1.88765e-06
-2.32882e-06
4.78874e-06
2.95287e-06
3.98666e-08
8.01939e-08
7.48149e-08
9.60681e-08
6.38795e-08
1.15394e-08
3.12821e-09
1.42649e-09
8.16723e-09
1.72156e-08
1.85014e-08
2.17678e-08
1.6966e-08
2.12431e-08
5.44441e-09
9.45469e-09
2.57698e-09
1.89346e-09
-1.90028e-09
-3.78464e-09
-6.06825e-09
-1.21096e-08
-1.67826e-08
-2.94775e-08
-4.3345e-08
-6.89249e-08
-1.01843e-07
-1.45875e-07
-1.82216e-07
-2.27973e-07
-3.33767e-07
-4.86969e-07
-2.5946e-07
3.54025e-07
-9.21507e-07
-1.4701e-06
4.64242e-06
-3.89659e-06
-9.31617e-07
1.7874e-08
-9.96672e-09
3.69115e-08
3.70594e-08
1.09817e-07
3.79048e-08
3.78726e-08
2.69853e-08
-2.43553e-08
-6.01109e-08
-2.28384e-08
-3.97107e-08
7.77286e-09
-1.6388e-08
2.40661e-08
-8.99502e-09
2.69455e-08
-7.33206e-09
3.4696e-08
6.08897e-09
4.58148e-08
-8.34525e-09
2.20531e-08
1.2889e-08
1.08768e-07
1.29009e-08
-1.47806e-07
-2.46355e-07
2.09645e-07
2.05613e-07
-8.15968e-07
-3.54634e-07
-1.19378e-06
-3.65926e-06
2.21079e-06
5.83833e-06
-8.8279e-06
1.11014e-06
-1.05876e-06
4.92111e-08
6.26217e-08
9.56023e-08
7.07271e-08
4.80722e-08
3.71093e-08
-8.01063e-09
-6.88712e-09
-7.37301e-09
7.23449e-09
4.36689e-09
1.73195e-08
1.18017e-08
1.12633e-08
1.24713e-09
7.39198e-09
-9.08209e-09
6.51645e-09
-4.75569e-09
1.77398e-09
-1.31824e-08
-1.53402e-08
-3.15271e-08
-3.52984e-08
-4.95086e-08
-5.44312e-08
-7.16213e-08
-7.58602e-08
-7.78865e-08
-4.83034e-08
-1.03316e-07
-2.51194e-07
4.02773e-08
9.41977e-07
-3.02122e-06
-7.98261e-06
1.20696e-05
-4.20461e-06
6.59033e-08
1.15204e-08
2.81512e-08
2.14578e-08
6.83145e-08
1.95527e-08
1.02794e-07
5.82185e-08
-1.42976e-08
-1.15682e-08
-2.59879e-08
-2.68916e-08
-1.19714e-08
-2.80795e-09
1.07592e-08
1.42931e-08
1.97846e-08
2.11342e-08
2.74236e-08
3.78889e-08
5.20454e-08
6.20798e-08
5.75767e-08
6.78363e-08
1.11834e-07
1.48823e-07
1.10515e-07
4.03805e-08
1.42378e-07
4.02954e-07
4.62166e-07
6.01924e-07
1.20012e-06
1.2106e-06
7.27917e-07
1.75102e-06
1.0203e-06
-1.8927e-06
3.58542e-06
1.82911e-06
3.38287e-08
7.16853e-08
6.06644e-08
8.33802e-08
5.36264e-08
-6.16379e-09
3.62549e-09
-1.10906e-09
7.87302e-09
1.00772e-08
1.64053e-08
1.58978e-08
1.29329e-08
5.12277e-09
5.14208e-10
-1.6227e-08
1.52587e-08
-1.54477e-08
-5.14774e-10
-7.04559e-09
-8.64157e-09
-1.67523e-08
-2.37216e-08
-3.39035e-08
-4.68131e-08
-6.60965e-08
-9.25722e-08
-1.23419e-07
-1.51647e-07
-1.91102e-07
-2.86864e-07
-3.905e-07
-2.21496e-07
1.88934e-07
-8.26891e-07
-5.1413e-07
3.37563e-06
-3.10354e-06
-7.62963e-07
1.28001e-08
-1.3091e-08
3.48546e-08
2.82167e-08
1.08918e-07
4.06068e-08
3.8438e-08
6.60516e-08
-1.91737e-08
-1.29411e-08
-3.17778e-08
2.22e-10
-7.90884e-09
2.49932e-08
9.21398e-09
3.57207e-08
1.50607e-08
4.20091e-08
2.42359e-08
5.71797e-08
3.15565e-08
5.18303e-08
2.20871e-08
7.40339e-08
6.98793e-08
5.61258e-08
-9.15454e-08
-9.5903e-08
8.41648e-08
1.57317e-07
-2.98819e-07
-9.46015e-09
-4.61234e-07
-2.0308e-06
1.37522e-06
3.49608e-06
-7.15323e-06
1.28382e-06
-7.88045e-07
4.3694e-08
5.30305e-08
8.57178e-08
5.70971e-08
3.44045e-08
3.53071e-08
-9.62161e-09
-1.34205e-08
-4.22545e-09
-1.70889e-10
1.00316e-08
6.48652e-09
1.08358e-08
-7.20838e-09
-1.87444e-08
2.13685e-08
-2.0127e-08
-3.16862e-09
-1.47401e-08
-4.0305e-09
-4.66172e-09
-1.74644e-08
-2.71326e-08
-4.28165e-08
-5.18338e-08
-6.74601e-08
-7.81339e-08
-9.38924e-08
-9.04964e-08
-9.64492e-08
-1.41946e-07
-2.72387e-07
-1.00236e-07
4.60597e-07
-2.09286e-06
-4.76871e-06
9.11971e-06
-3.40143e-06
-8.72573e-08
5.06188e-09
2.86195e-08
1.53777e-08
6.36056e-08
2.05938e-08
9.82852e-08
7.7999e-08
-2.41416e-09
1.79894e-08
-1.05769e-08
-8.56914e-09
-8.90093e-09
1.34906e-08
1.52437e-08
3.28299e-08
2.80498e-08
4.19429e-08
3.88039e-08
5.80082e-08
5.97994e-08
7.88544e-08
7.22488e-08
9.22755e-08
1.1027e-07
1.35167e-07
1.06336e-07
8.15235e-08
1.63316e-07
3.40102e-07
4.13394e-07
5.72718e-07
9.43382e-07
8.98311e-07
6.33544e-07
1.3524e-06
4.19448e-07
-1.46453e-06
2.71508e-06
1.18677e-06
2.85094e-08
6.27984e-08
4.95573e-08
7.22635e-08
4.37747e-08
-1.49338e-08
5.93352e-10
-2.28514e-10
3.75983e-09
1.09034e-08
1.15157e-08
1.60661e-08
-4.34775e-09
-1.80793e-08
1.57071e-08
-1.03806e-08
6.99478e-09
-3.58515e-08
-7.86094e-09
-1.9473e-08
-1.25846e-08
-1.51783e-08
-2.5634e-08
-3.51944e-08
-4.85949e-08
-6.33929e-08
-8.45122e-08
-1.05659e-07
-1.29298e-07
-1.67091e-07
-2.46052e-07
-3.20354e-07
-1.62223e-07
5.91399e-08
-6.83696e-07
1.34707e-07
2.37864e-06
-2.39338e-06
-6.18123e-07
1.17865e-08
-1.32615e-08
3.06658e-08
2.88513e-08
1.03114e-07
3.8248e-08
5.15007e-08
7.33446e-08
1.41481e-08
-1.13007e-08
-9.00726e-09
-7.90906e-09
1.29562e-08
1.9137e-08
3.48002e-08
3.3974e-08
4.53557e-08
4.35936e-08
5.72914e-08
5.70847e-08
6.89077e-08
5.81926e-08
7.00759e-08
7.73308e-08
9.92013e-08
6.51388e-08
1.15316e-08
-7.01925e-09
1.02077e-07
1.37633e-07
1.53914e-08
1.61768e-07
-1.24119e-07
-1.1176e-06
8.49035e-07
1.34192e-06
-5.22143e-06
1.28698e-06
-4.88547e-07
3.7776e-08
4.41841e-08
7.60919e-08
4.13282e-08
2.46617e-08
3.02985e-08
-1.32898e-08
-1.34708e-08
-5.08776e-09
1.5426e-09
9.01765e-09
5.33514e-10
-1.14073e-08
7.52374e-09
-1.1828e-08
2.18255e-08
-3.54438e-08
-7.96832e-09
-4.86006e-08
-1.25521e-08
-2.08931e-08
-1.66017e-08
-2.6441e-08
-3.86062e-08
-5.21629e-08
-6.41477e-08
-7.87438e-08
-8.957e-08
-9.89192e-08
-1.11184e-07
-1.66346e-07
-2.37333e-07
-1.22505e-07
2.98918e-07
-1.38636e-06
-1.85121e-06
6.23043e-06
-2.67761e-06
-1.89813e-07
7.44662e-09
2.50198e-08
1.56033e-08
5.80366e-08
1.25626e-08
1.00623e-07
7.67263e-08
1.35351e-08
2.78803e-08
3.75657e-09
-8.68708e-09
1.7575e-09
1.02738e-08
2.88902e-08
3.34137e-08
4.53007e-08
4.60752e-08
5.74616e-08
6.13066e-08
7.5518e-08
7.95512e-08
9.18061e-08
9.68016e-08
1.15402e-07
1.18944e-07
1.10403e-07
1.01117e-07
1.66898e-07
2.75965e-07
3.53428e-07
4.93644e-07
7.01062e-07
6.18182e-07
5.40764e-07
9.8588e-07
6.18091e-08
-9.85805e-07
2.05382e-06
8.21719e-07
2.26916e-08
5.44364e-08
3.58256e-08
6.20453e-08
3.32841e-08
-1.95239e-08
-5.22237e-10
-2.33895e-10
2.9688e-09
9.55088e-09
1.0534e-08
3.61625e-09
-6.06281e-10
-7.71307e-09
2.00346e-08
-1.08996e-08
-5.16409e-09
-4.61611e-08
-1.61821e-08
-3.71553e-08
-2.6694e-08
-2.37863e-08
-2.53237e-08
-3.46364e-08
-4.59777e-08
-5.98199e-08
-7.49635e-08
-9.24878e-08
-1.12733e-07
-1.50302e-07
-2.09662e-07
-2.5585e-07
-1.11422e-07
-6.3463e-08
-4.88117e-07
4.63068e-07
1.52162e-06
-1.78597e-06
-4.97266e-07
7.60323e-09
-1.51276e-08
2.84435e-08
2.1721e-08
9.85082e-08
3.89233e-08
4.97507e-08
8.75174e-08
1.78594e-08
1.35667e-09
-9.54455e-09
-2.91642e-09
1.20806e-08
2.59756e-08
3.7045e-08
4.44568e-08
5.05851e-08
5.64146e-08
6.28742e-08
6.97785e-08
7.56295e-08
7.75031e-08
8.06592e-08
9.28518e-08
1.01645e-07
9.0543e-08
6.30814e-08
6.38883e-08
1.12759e-07
1.48797e-07
1.38663e-07
2.03548e-07
-1.20151e-08
-5.54712e-07
4.32982e-07
1.81148e-07
-3.69346e-06
1.22068e-06
-1.8552e-07
3.2655e-08
3.51896e-08
6.58999e-08
2.99447e-08
1.84968e-08
2.70083e-08
-1.40519e-08
-1.14762e-08
-4.88925e-09
2.67968e-09
6.46934e-09
-4.70408e-09
1.35715e-09
7.86101e-09
9.2212e-09
-3.86502e-09
-1.79196e-08
-1.26946e-08
-3.59359e-08
-3.58751e-08
-3.5613e-08
-1.93953e-08
-2.32249e-08
-3.36376e-08
-4.6045e-08
-5.82733e-08
-7.05337e-08
-8.28164e-08
-9.55806e-08
-1.17726e-07
-1.58991e-07
-1.98594e-07
-8.40167e-08
1.28299e-07
-7.32321e-07
-3.19494e-07
4.07954e-06
-1.9586e-06
-2.56402e-07
2.28366e-09
2.48974e-08
1.03746e-08
5.2702e-08
1.32485e-08
9.3109e-08
8.21e-08
1.83723e-08
3.58933e-08
8.89415e-09
-5.35052e-09
1.88283e-10
1.37126e-08
2.74665e-08
3.85116e-08
4.58493e-08
5.25135e-08
5.83486e-08
6.60806e-08
7.35604e-08
8.17316e-08
9.05417e-08
9.85881e-08
1.0538e-07
1.08386e-07
1.02534e-07
1.06162e-07
1.48396e-07
2.17387e-07
2.84517e-07
3.87423e-07
4.91345e-07
4.17583e-07
4.57575e-07
6.89383e-07
-1.00078e-07
-6.00262e-07
1.54974e-06
6.31305e-07
1.82555e-08
4.59932e-08
2.63654e-08
5.26279e-08
2.65357e-08
-2.10631e-08
1.13058e-09
-2.01413e-09
3.306e-09
7.30058e-09
7.24442e-09
5.48114e-10
-3.75172e-09
1.4116e-08
6.08732e-09
-4.0567e-09
-7.31288e-09
-1.68301e-08
-2.95182e-08
-4.98201e-08
-2.37391e-08
-2.97529e-08
-2.46863e-08
-3.02835e-08
-4.11573e-08
-5.3171e-08
-6.61667e-08
-8.07284e-08
-1.01376e-07
-1.33397e-07
-1.77973e-07
-1.96959e-07
-9.8827e-08
-1.48373e-07
-3.177e-07
5.07365e-07
9.15976e-07
-1.28165e-06
-4.10098e-07
6.66846e-09
-1.47571e-08
2.43189e-08
2.19303e-08
9.04602e-08
3.346e-08
5.32461e-08
8.31694e-08
2.76172e-08
2.99715e-09
-6.8563e-09
-2.72588e-09
1.11661e-08
2.52999e-08
3.6252e-08
4.45325e-08
5.06165e-08
5.66568e-08
6.22362e-08
6.84731e-08