/*--------------------------------*- C++ -*----------------------------------*\
| =========                 |                                                 |
| \\      /  F ield         | OpenFOAM: The Open Source CFD Toolbox           |
|  \\    /   O peration     | Version:  2312                                  |
|   \\  /    A nd           | Website:  www.openfoam.com                      |
|    \\/     M anipulation  |                                                 |
\*---------------------------------------------------------------------------*/
FoamFile
{
    version     2.0;
    format      ascii;
    arch        "LSB;label=32;scalar=64";
    class       volVectorField;
    location    "400";
    object      momentError;
}
// * * * * * * * * * * * * * * * * * * * * * * * * * * * * * * * * * * * * * //

dimensions      [0 1 -2 0 0 0 0];

internalField   nonuniform List<vector> 
10720
(
(9.51031e-06 0.000180271 -4.16092e-15)
(3.90958e-05 0.00013691 -2.46499e-15)
(8.0137e-05 -5.28007e-05 -2.15844e-14)
(4.793e-05 -4.12768e-05 9.99153e-14)
(3.19775e-05 -6.25791e-05 7.47322e-14)
(1.45122e-05 -7.8429e-05 -1.85119e-13)
(-5.57814e-06 -9.9693e-05 -1.39561e-13)
(-2.53944e-05 -0.000113874 -1.07605e-13)
(-4.58215e-05 -0.000119684 2.15489e-14)
(-6.38672e-05 -0.000120564 5.47612e-15)
(-7.673e-05 -0.000113377 -1.55953e-14)
(-9.55438e-05 -0.000116325 6.73758e-14)
(-0.000108258 -0.000110689 -2.19364e-13)
(-0.000119898 -0.000108093 -4.01235e-13)
(-0.000134535 -0.000110376 7.43284e-14)
(-0.000151395 -0.000115527 -1.06086e-13)
(-0.000204697 -0.000133793 1.15543e-13)
(-0.000268369 -0.000151692 8.86573e-13)
(-0.000274686 -0.000138598 2.34707e-13)
(-0.000665643 -0.000226557 -4.66658e-13)
(-0.0011069 -0.000339743 -2.31245e-13)
(-0.000958391 -0.000712533 9.5875e-14)
(-0.0047226 -0.00137302 3.38088e-13)
(-0.0192193 -0.00304772 -2.47237e-13)
(-0.0261524 -0.00554636 4.59092e-14)
(-0.00648299 -0.00416491 -4.01633e-14)
(0.0104745 -0.000733404 -6.94603e-14)
(0.0121957 0.00179452 1.3129e-14)
(0.00577811 0.00230407 1.00926e-14)
(-1.36359e-06 0.00166981 2.09897e-13)
(-0.00382222 0.000866707 1.5502e-13)
(-0.00388686 0.000386844 -1.77283e-13)
(-0.000770452 -3.3231e-05 -1.33396e-13)
(0.000620259 -0.00016217 -2.39295e-13)
(0.000758496 -3.61208e-05 -1.59705e-13)
(3.58184e-05 0.00121018 1.54549e-13)
(0.00139451 0.0114659 -1.08658e-14)
(0.0531035 0.0721055 -5.77653e-16)
(1.09152 -0.120239 -6.35189e-14)
(1.06505e-05 0.000155239 8.10914e-15)
(4.41445e-06 0.000142028 -2.00083e-14)
(2.05594e-05 0.00012252 2.29203e-14)
(2.76116e-05 0.000117565 1.04293e-13)
(3.53437e-05 0.000110742 3.60746e-14)
(-2.28066e-05 0.000161774 -2.84893e-13)
(-3.0952e-05 0.000135394 -1.55794e-13)
(-9.89159e-05 0.000181997 1.61066e-13)
(-0.000119529 0.00011052 -6.37561e-14)
(-9.2599e-05 5.91088e-05 5.91478e-14)
(-4.60535e-05 -7.0368e-06 -8.07544e-14)
(1.64649e-05 -4.03864e-05 -1.38034e-13)
(4.03067e-05 -4.37547e-05 3.60443e-14)
(5.31604e-05 -4.08311e-05 7.11213e-14)
(5.934e-05 -3.57583e-05 -1.17393e-13)
(6.12233e-05 -3.015e-05 -1.01456e-13)
(5.99711e-05 -2.49352e-05 -7.23974e-14)
(5.71037e-05 -2.05408e-05 -8.85833e-14)
(5.3724e-05 -1.71256e-05 -3.26374e-14)
(5.02257e-05 -1.43838e-05 -2.83419e-15)
(4.68403e-05 -1.2501e-05 3.10516e-14)
(4.39146e-05 -1.09789e-05 6.26775e-14)
(4.15654e-05 -1.03007e-05 -2.99155e-14)
(4.12061e-05 -9.63423e-06 -2.12858e-14)
(4.24246e-05 -8.45915e-06 2.58179e-14)
(4.3437e-05 -6.64903e-06 -4.02067e-15)
(4.40508e-05 -5.02342e-06 -9.91144e-16)
(4.44011e-05 -5.34888e-06 -2.05133e-15)
(4.42379e-05 -4.65911e-06 4.71588e-16)
(4.18785e-05 -4.10166e-06 1.09807e-16)
(4.21957e-05 -2.29791e-06 4.97835e-16)
(5.31112e-05 -1.03998e-06 -1.3295e-15)
(8.26339e-05 2.7249e-06 -2.52112e-15)
(6.66406e-05 4.75512e-06 -4.0728e-15)
(1.17827e-05 -7.21995e-07 -5.36137e-15)
(0.000196882 2.06393e-05 -2.34826e-15)
(0.00022145 5.65629e-06 1.28087e-14)
(0.000406535 -0.000155516 -3.38229e-15)
(0.00190375 -0.00152411 -5.83465e-14)
(0.000153641 6.25916e-05 -3.87954e-15)
(0.000173961 1.84579e-05 2.20517e-15)
(0.00017992 -0.000115679 -2.05201e-17)
(0.000156948 -0.000112715 -7.5592e-15)
(0.000141402 -0.000118841 9.99721e-15)
(0.000127269 -0.000134574 6.71977e-14)
(0.000108454 -0.000147349 8.02701e-14)
(9.01748e-05 -0.000150448 2.64618e-14)
(6.97293e-05 -0.000150544 -8.61513e-14)
(5.25846e-05 -0.00014351 -4.18871e-14)
(3.68427e-05 -0.000134881 -2.56347e-13)
(3.07925e-05 -0.000105938 -4.7214e-13)
(3.11417e-05 -7.91834e-05 -2.36367e-14)
(3.77858e-05 -5.48333e-05 -2.07029e-14)
(3.82118e-05 -2.63267e-05 -8.27851e-14)
(4.675e-05 -7.44392e-07 8.65153e-14)
(1.64714e-05 3.04965e-05 3.88937e-13)
(1.71768e-05 4.25436e-05 -6.87349e-13)
(0.000653208 -9.37154e-05 -5.722e-13)
(-0.000935895 0.000208324 -3.58387e-13)
(0.0136133 -0.00358596 2.15281e-13)
(-0.00197986 0.00107058 2.96334e-13)
(-0.0608224 -0.0226008 -3.8572e-13)
(-0.0055528 -0.00323799 5.93684e-14)
(0.0561273 0.00188992 -2.10278e-15)
(0.0781931 0.0076612 -1.16444e-14)
(0.0459109 0.00856896 -4.08334e-15)
(-0.00563727 0.00472951 1.23245e-14)
(-0.0143038 0.00285073 -2.74915e-14)
(-0.00593646 0.00194293 -1.02219e-14)
(-0.00461571 0.000496091 9.33512e-15)
(-0.00212419 -0.000394649 -5.55788e-15)
(-0.000992383 -0.000465071 -1.14721e-13)
(0.000311852 -0.000368322 -7.19283e-14)
(0.000961801 -0.000219931 1.60268e-13)
(0.000480579 0.000208349 2.84512e-14)
(-0.000467429 0.00213558 6.3542e-14)
(-0.0315299 0.0142645 -1.17506e-14)
(-0.89266 0.108726 -3.26041e-14)
(0.000147699 6.39393e-05 -1.63937e-14)
(0.000143113 5.89433e-05 1.50208e-13)
(0.000138218 6.59446e-05 -4.7148e-14)
(0.000132868 8.41862e-05 -1.15849e-13)
(0.000112349 0.00010642 8.28567e-14)
(7.13353e-05 0.000126677 6.69344e-14)
(4.08221e-05 0.000123386 2.90905e-14)
(-9.94092e-06 0.000123065 1.54085e-13)
(-4.88505e-05 7.11305e-05 -2.99372e-15)
(-5.05263e-05 2.27178e-05 -4.39998e-14)
(-2.92114e-05 -2.45391e-05 7.29925e-14)
(4.93906e-06 -4.50821e-05 -9.49627e-14)
(2.61447e-05 -4.87115e-05 1.99597e-14)
(3.94349e-05 -4.6967e-05 1.04082e-14)
(4.74629e-05 -4.24157e-05 2.46884e-14)
(5.12401e-05 -3.64536e-05 2.76951e-14)
(5.18904e-05 -3.05839e-05 4.69668e-14)
(5.04416e-05 -2.55002e-05 -1.40527e-14)
(4.81332e-05 -2.13707e-05 3.03485e-15)
(4.5319e-05 -1.82405e-05 -7.01878e-15)
(4.257e-05 -1.57903e-05 1.82706e-14)
(4.00127e-05 -1.40666e-05 5.30078e-14)
(3.82056e-05 -1.28518e-05 -8.85945e-16)
(3.7885e-05 -1.24919e-05 -1.76476e-14)
(3.91361e-05 -1.12441e-05 -1.49691e-14)
(4.03511e-05 -9.50259e-06 2.14083e-14)
(4.15621e-05 -7.5653e-06 6.15469e-15)
(4.31426e-05 -5.52494e-06 -1.60834e-15)
(4.35421e-05 -3.20851e-06 4.65889e-17)
(4.2374e-05 -9.42378e-07 -1.06149e-16)
(4.32804e-05 -9.3735e-07 -1.99656e-16)
(4.90125e-05 1.26384e-06 -4.30441e-16)
(4.98384e-05 3.41023e-06 2.17616e-15)
(4.26008e-05 1.53517e-06 2.41759e-15)
(6.29758e-05 -4.04152e-06 2.74985e-15)
(0.00010247 9.09992e-06 -7.42694e-15)
(0.000177825 2.87951e-05 7.85902e-16)
(0.000104188 3.29825e-06 1.33742e-14)
(0.00137226 0.000171643 1.57993e-14)
(8.57925e-05 2.08244e-05 2.1028e-15)
(9.13494e-05 -1.61217e-05 -1.43473e-15)
(8.72672e-05 -0.000108682 -2.62737e-15)
(6.38215e-05 -0.000106263 1.35771e-15)
(5.10963e-05 -0.000107783 5.77421e-14)
(3.59769e-05 -0.000122257 -6.42715e-14)
(2.0635e-05 -0.000128181 -8.81757e-14)
(5.62497e-06 -0.000128725 1.60613e-13)
(-9.98747e-06 -0.000126824 6.5611e-14)
(-2.29298e-05 -0.000122426 8.88349e-14)
(-3.23056e-05 -0.000114456 2.04931e-14)
(-3.94971e-05 -0.000107938 -7.65895e-16)
(-4.31422e-05 -0.000100693 3.55632e-13)
(-4.18681e-05 -9.2786e-05 1.2017e-14)
(-3.02256e-05 -8.8633e-05 2.16429e-13)
(-1.17459e-05 -8.91118e-05 1.20401e-15)
(1.93166e-05 -9.83586e-05 -6.83818e-13)
(7.16893e-05 3.76436e-05 4.11915e-13)
(-0.000270039 0.000175402 9.19855e-13)
(-0.000289526 0.00239599 1.65781e-13)
(-0.00739227 0.0112779 -2.66422e-14)
(0.000825679 -0.000253115 -6.79464e-14)
(0.0966573 0.0504143 1.64832e-13)
(0.0052583 -0.00215677 1.19028e-13)
(0.00986113 -0.00338326 -9.77458e-14)
(-0.00589513 -0.00127255 -2.18472e-14)
(-0.0499248 -0.00214525 -5.62719e-14)
(-0.0744332 -0.00140959 3.08544e-14)
(-0.0242868 0.000971344 -2.82693e-14)
(-0.00839796 0.00125088 -1.56281e-13)
(-0.00263587 -0.00080949 -7.78645e-15)
(0.00452003 -0.00156742 2.3731e-13)
(0.00294602 -0.00138682 3.59788e-14)
(0.00174703 -0.000865752 1.12192e-13)
(0.000898178 -0.00033106 1.33271e-13)
(-0.000217316 0.000156304 2.20502e-14)
(-0.00225069 0.00122744 -8.48607e-14)
(-0.0161592 0.00209441 8.48529e-15)
(-0.113233 0.0097948 1.56876e-14)
(9.32213e-05 3.01252e-05 2.43134e-14)
(0.000100082 2.9798e-05 -3.70471e-14)
(0.000108451 3.75549e-05 -4.65106e-14)
(0.000109461 5.60852e-05 -1.31007e-14)
(0.00010076 7.47754e-05 1.1287e-14)
(8.17778e-05 8.73414e-05 -1.20767e-13)
(6.10573e-05 8.65257e-05 2.34738e-14)
(2.4391e-05 7.92668e-05 -1.49195e-13)
(-8.90459e-06 4.75146e-05 -1.2496e-13)
(-1.92497e-05 1.39051e-05 -1.15754e-13)
(-8.77124e-06 -1.58841e-05 1.18262e-13)
(1.05785e-05 -3.14021e-05 1.03767e-13)
(2.65388e-05 -3.68937e-05 -6.46438e-14)
(3.77353e-05 -3.73663e-05 -1.48448e-13)
(4.49575e-05 -3.48999e-05 4.05276e-14)
(4.88091e-05 -3.06449e-05 6.98167e-14)
(4.99617e-05 -2.61458e-05 -1.89662e-14)
(4.90996e-05 -2.2081e-05 -9.26357e-14)
(4.72055e-05 -1.86738e-05 -2.68353e-14)
(4.475e-05 -1.59456e-05 2.52984e-15)
(4.22092e-05 -1.39602e-05 -2.0701e-14)
(3.97753e-05 -1.26097e-05 -4.1392e-14)
(3.80008e-05 -1.20067e-05 9.12866e-15)
(3.76026e-05 -1.16446e-05 -6.39723e-16)
(3.86303e-05 -1.03395e-05 2.87542e-15)
(3.97036e-05 -8.50202e-06 -9.68776e-15)
(4.05124e-05 -6.64882e-06 -1.78534e-14)
(4.1743e-05 -5.25401e-06 3.974e-15)
(4.23551e-05 -3.56571e-06 7.53488e-16)
(4.12653e-05 -3.00987e-06 -1.71304e-16)
(4.14991e-05 -1.65073e-06 1.19202e-16)
(4.89625e-05 -8.10836e-07 4.71239e-16)
(6.46587e-05 3.73336e-06 -7.56796e-16)
(5.91378e-05 9.04716e-06 -1.43232e-15)
(5.45638e-05 1.67292e-05 6.41936e-16)
(0.000204399 3.5799e-05 -1.15941e-15)
(0.000117329 3.25674e-06 8.74912e-15)
(0.000184846 7.58948e-05 8.12914e-15)
(0.00105297 0.000190256 -8.31846e-14)
(0.000101512 -1.44447e-05 1.05194e-14)
(0.000101893 -5.05763e-05 2.79079e-15)
(9.19048e-05 -0.000116035 1.07519e-15)
(7.57644e-05 -0.000118842 -6.51952e-15)
(6.59746e-05 -0.000122266 1.03412e-15)
(5.09256e-05 -0.000135407 -1.45221e-14)
(3.67493e-05 -0.000140429 1.04185e-13)
(2.22491e-05 -0.000138719 3.08575e-14)
(7.80715e-06 -0.000136593 -2.52685e-13)
(-4.27179e-06 -0.000131621 8.50901e-14)
(-1.32389e-05 -0.000123298 2.72083e-13)
(-2.05726e-05 -0.000114381 3.41575e-13)
(-2.49892e-05 -0.000101723 7.87846e-14)
(-2.62528e-05 -8.77717e-05 -3.85238e-13)
(-2.70594e-05 -7.33748e-05 -9.78806e-14)
(-3.37475e-05 -5.52653e-05 -9.90238e-14)
(-3.21168e-05 -3.49266e-05 -1.7903e-13)
(-6.47432e-05 5.29528e-06 -3.6212e-13)
(-3.09229e-06 -0.000165662 -6.29133e-13)
(0.0002437 0.00016428 1.5905e-13)
(-0.00456702 -0.00650045 -1.26896e-13)
(0.0011324 0.00157052 -1.78369e-13)
(-0.0473085 -0.0254437 2.43715e-15)
(-0.00131693 -0.00252331 -2.52322e-13)
(-0.00986726 -0.0015719 -4.64053e-14)
(-0.00624327 -0.000802861 4.39836e-14)
(-0.0055039 0.00930496 5.28166e-14)
(0.0957089 -0.00243397 -2.40935e-14)
(-0.0374474 0.0014636 3.35189e-14)
(-0.0570964 0.00495334 6.48404e-14)
(0.0194561 -0.0056378 -5.635e-14)
(0.0136785 -0.00191695 1.21545e-14)
(0.0115757 -0.00207615 1.7746e-13)
(0.0052426 -0.000919786 8.07524e-14)
(0.000780184 -0.000200076 -3.26381e-14)
(-0.000970013 0.000258898 -1.08666e-13)
(-0.00171972 0.000725245 -2.72123e-14)
(-0.00682207 -7.05965e-05 -1.97159e-14)
(-0.0337272 0.00910203 5.5059e-14)
(0.000107808 -3.33235e-06 -1.74214e-15)
(0.000111287 1.61449e-06 -3.89806e-14)
(0.000112483 1.31622e-05 -3.45708e-14)
(0.000108403 3.24655e-05 -2.8168e-14)
(9.81609e-05 4.90972e-05 1.13971e-13)
(8.35598e-05 5.85747e-05 2.05741e-13)
(6.45402e-05 6.03123e-05 1.17494e-14)
(3.49752e-05 5.57141e-05 1.41483e-13)
(1.19712e-05 3.47989e-05 5.35968e-16)
(2.00624e-06 1.05126e-05 -3.11184e-14)
(6.26389e-06 -1.20127e-05 -9.01096e-14)
(1.64188e-05 -2.57646e-05 -2.98119e-14)
(2.7296e-05 -3.23908e-05 -1.54225e-14)
(3.60006e-05 -3.41731e-05 7.44051e-14)
(4.20905e-05 -3.29748e-05 -3.90149e-14)
(4.5705e-05 -2.99729e-05 -1.3229e-13)
(4.7179e-05 -2.62774e-05 -1.6807e-14)
(4.68059e-05 -2.26041e-05 8.63531e-14)
(4.53716e-05 -1.94467e-05 -2.61242e-15)
(4.33132e-05 -1.67984e-05 -2.43509e-14)
(4.10859e-05 -1.47962e-05 -6.56387e-14)
(3.89122e-05 -1.32945e-05 2.67981e-14)
(3.73251e-05 -1.25049e-05 3.5215e-14)
(3.69706e-05 -1.19758e-05 -6.07081e-15)
(3.78844e-05 -1.0757e-05 -2.76232e-15)
(3.89828e-05 -9.03116e-06 6.02174e-15)
(3.98502e-05 -7.30894e-06 8.65949e-15)
(4.10973e-05 -5.88043e-06 -2.03032e-15)
(4.17448e-05 -4.14228e-06 -7.46278e-16)
(4.08644e-05 -2.84605e-06 1.85039e-16)
(4.07047e-05 -2.68484e-06 -1.01426e-16)
(4.64605e-05 -6.21729e-06 -1.65318e-16)
(4.82944e-05 -4.88123e-05 6.50296e-17)
(-1.43231e-05 -0.000228442 -2.61756e-16)
(0.000113117 0.000278015 -2.03128e-15)
(-0.000267345 -0.00108188 1.47355e-14)
(0.000683492 0.00194082 -2.20947e-14)
(0.000182595 -0.00033999 -5.54812e-14)
(0.000903033 0.000217212 -3.03392e-14)
(8.07904e-05 -3.19313e-05 -8.92771e-15)
(7.40421e-05 -6.24052e-05 4.80228e-15)
(6.0958e-05 -0.000111934 4.18994e-15)
(4.68648e-05 -0.000114319 -1.73958e-14)
(3.5534e-05 -0.000116299 -1.48373e-14)
(2.00827e-05 -0.000125778 3.52269e-14)
(4.84283e-06 -0.000126398 -1.29234e-14)
(-9.41891e-06 -0.00012188 1.36912e-14)
(-2.30032e-05 -0.000118181 -9.40588e-14)
(-3.37461e-05 -0.000111539 -2.87264e-13)
(-4.15472e-05 -0.000102411 -1.03063e-14)
(-4.75093e-05 -9.27503e-05 -1.25278e-13)
(-5.02875e-05 -8.16129e-05 -8.11741e-14)
(-5.01872e-05 -7.11659e-05 -1.43819e-14)
(-4.69323e-05 -6.31129e-05 -3.30096e-13)
(-4.09517e-05 -5.99191e-05 2.99775e-13)
(-2.91969e-05 -5.64828e-05 1.71945e-13)
(-2.41019e-05 -4.56749e-05 -3.86694e-13)
(1.05318e-05 -9.41142e-06 1.22221e-13)
(2.13303e-05 -2.00771e-05 -2.00975e-13)
(-3.63791e-05 -0.000206375 -1.39519e-13)
(0.000449214 2.08091e-05 2.51196e-13)
(0.000957494 -0.000139413 6.09117e-15)
(0.000569814 -0.00209807 2.21505e-13)
(0.000984385 -0.00373791 1.01111e-13)
(-0.00525136 0.000410945 -2.0469e-14)
(0.0182231 0.00233986 6.24726e-15)
(-0.0487916 0.0124482 2.47232e-14)
(0.016512 -0.00549269 -3.01273e-14)
(0.00636181 -0.00282458 -5.40569e-14)
(0.00650579 0.00189707 2.18191e-14)
(-0.00282332 -0.00320194 -5.27619e-14)
(0.00901055 -0.000966506 -3.99972e-14)
(0.00552973 -0.000497328 -1.49108e-13)
(0.00138305 5.2561e-05 -2.39487e-13)
(-0.00186393 0.000388579 4.13576e-14)
(-0.00171841 0.000575682 -1.05412e-14)
(-0.00424553 -0.000451142 -9.33107e-15)
(-0.0204304 0.0093883 -1.94196e-14)
(8.74166e-05 -2.05062e-05 2.0044e-14)
(9.4731e-05 -1.4102e-05 3.82119e-14)
(9.76413e-05 -3.59474e-06 -5.04888e-14)
(9.56065e-05 1.46456e-05 -1.94964e-14)
(8.85213e-05 2.91394e-05 7.47183e-14)
(7.82634e-05 3.80033e-05 -1.50772e-13)
(6.26339e-05 4.2471e-05 -9.96702e-14)
(4.05146e-05 3.85123e-05 2.05194e-13)
(2.37398e-05 2.37426e-05 1.92426e-13)
(1.59049e-05 6.634e-06 -8.41535e-15)
(1.71725e-05 -9.39388e-06 -5.58726e-14)
(2.27316e-05 -2.02129e-05 -3.47738e-14)
(2.98912e-05 -2.62063e-05 1.17142e-13)
(3.63821e-05 -2.83962e-05 -5.81125e-14)
(4.12418e-05 -2.79991e-05 -1.3047e-14)
(4.43234e-05 -2.58978e-05 9.83204e-14)
(4.5798e-05 -2.31071e-05 -4.4403e-14)
(4.56655e-05 -2.00433e-05 4.07386e-14)
(4.45705e-05 -1.72918e-05 2.43684e-14)
(4.27917e-05 -1.49195e-05 4.24636e-15)
(4.07954e-05 -1.31959e-05 6.83437e-14)
(3.87991e-05 -1.19005e-05 -2.56249e-14)
(3.73034e-05 -1.13151e-05 -4.7724e-14)
(3.6878e-05 -1.08896e-05 -7.62212e-15)
(3.76405e-05 -9.89859e-06 1.90808e-14)
(3.86823e-05 -8.24936e-06 6.49136e-16)
(3.96059e-05 -6.4782e-06 9.2536e-15)
(4.08846e-05 -4.92932e-06 -1.73579e-15)
(4.15955e-05 -3.16733e-06 1.12323e-16)
(4.07338e-05 -2.42812e-06 -2.76162e-16)
(4.05745e-05 -1.55521e-06 -5.07162e-16)
(4.8031e-05 7.78185e-06 4.14304e-17)
(6.59849e-05 7.7708e-05 3.84272e-17)
(8.43278e-05 0.000314511 4.79744e-16)
(-2.02903e-05 -0.000458655 -1.39275e-15)
(0.000329957 0.00125878 5.36531e-15)
(0.000210684 -0.0025244 1.73435e-15)
(0.000101318 0.000527617 -1.14578e-14)
(0.000885974 0.000116632 4.31166e-14)
(7.39902e-05 -4.59693e-05 2.18001e-15)
(6.74434e-05 -7.1341e-05 -4.30828e-16)
(5.37039e-05 -0.000109397 2.42882e-15)
(4.27758e-05 -0.000114571 -3.35108e-15)
(3.17519e-05 -0.000116822 1.12897e-14)
(1.68491e-05 -0.0001246 -1.49623e-15)
(2.64714e-06 -0.00012488 -4.2021e-14)
(-1.03461e-05 -0.000120848 7.85317e-14)
(-2.25585e-05 -0.000117909 1.69724e-13)
(-3.20568e-05 -0.000112013 -1.05787e-13)
(-3.89047e-05 -0.000104023 -1.08077e-13)
(-4.39045e-05 -9.5754e-05 6.48632e-14)
(-4.61087e-05 -8.64502e-05 -1.49791e-13)
(-4.57558e-05 -7.74402e-05 -2.84999e-14)
(-4.34511e-05 -7.0224e-05 -4.61246e-14)
(-4.10098e-05 -6.27418e-05 1.98241e-14)
(-3.90712e-05 -4.85671e-05 4.02797e-14)
(-2.81545e-05 -4.11857e-05 4.46982e-13)
(-8.92435e-06 -4.17032e-05 3.53052e-13)
(1.6009e-05 -7.51878e-05 -1.57619e-13)
(1.83049e-05 -0.000116106 2.26013e-13)
(0.000121355 -4.61679e-05 1.87443e-14)
(0.000533945 -0.000451546 -5.70799e-14)
(0.000443297 -0.0021127 -1.18264e-13)
(-0.00169051 -0.00316527 9.30048e-15)
(-0.0046593 -0.000678323 3.23161e-14)
(-0.00985 0.00438549 4.00203e-14)
(0.000983315 0.00505908 -3.78605e-14)
(0.013538 0.00148095 9.8387e-15)
(0.0329465 -0.00526808 7.59868e-14)
(-0.0215613 -0.000138294 -2.97424e-14)
(-0.00155876 -0.00205662 -1.67231e-13)
(-0.00395081 -0.000173114 -8.93894e-14)
(0.00100678 0.00016085 -6.14234e-14)
(0.000893991 0.00023513 6.35033e-14)
(-0.0010373 -0.000103567 5.72913e-14)
(-0.00174838 0.000664698 5.81227e-14)
(-0.00395798 -0.000307216 6.3893e-14)
(-0.01732 0.00992079 -1.02223e-15)
(8.08319e-05 -3.47428e-05 -9.13893e-15)
(8.6707e-05 -2.66314e-05 -1.05374e-14)
(8.8268e-05 -1.62231e-05 2.56521e-15)
(8.64655e-05 1.10306e-06 3.37494e-14)
(8.09928e-05 1.43074e-05 2.23688e-14)
(7.32456e-05 2.18082e-05 -1.94164e-13)
(6.02885e-05 2.74106e-05 -1.16773e-13)
(4.37773e-05 2.53634e-05 -1.8451e-13)
(3.16399e-05 1.53052e-05 2.24461e-14)
(2.55954e-05 3.10778e-06 2.06536e-14)
(2.5393e-05 -8.34703e-06 -5.19208e-14)
(2.8343e-05 -1.67579e-05 4.96175e-15)
(3.27931e-05 -2.19669e-05 -2.45833e-14)
(3.73132e-05 -2.43741e-05 -4.58441e-14)
(4.08991e-05 -2.46899e-05 -1.42141e-13)
(4.3299e-05 -2.34552e-05 -1.19728e-14)
(4.45383e-05 -2.1453e-05 8.6315e-14)
(4.44837e-05 -1.90469e-05 -1.33704e-14)
(4.3576e-05 -1.67479e-05 1.66973e-14)
(4.20281e-05 -1.46956e-05 -3.05232e-14)
(4.02464e-05 -1.31218e-05 -4.68579e-14)
(3.84247e-05 -1.20115e-05 -4.22999e-15)
(3.70569e-05 -1.1445e-05 1.76736e-14)
(3.65943e-05 -1.09956e-05 1.90787e-14)
(3.72422e-05 -1.00657e-05 -5.85366e-16)
(3.82409e-05 -8.59234e-06 -1.00548e-14)
(3.92243e-05 -6.85026e-06 -1.69472e-14)
(4.0543e-05 -5.34217e-06 3.28141e-15)
(4.13287e-05 -3.53726e-06 -1.92975e-16)
(4.06123e-05 -2.55353e-06 3.04057e-16)
(4.06446e-05 -2.18388e-06 4.82934e-16)
(4.91113e-05 -2.76907e-06 -4.14188e-17)
(7.07851e-05 -1.55106e-05 2.04971e-16)
(8.45575e-05 -7.60799e-05 -9.88042e-16)
(-4.28668e-05 0.000210833 3.2691e-16)
(0.000265515 -5.46471e-05 -1.4465e-14)
(-0.000155674 0.000831475 2.26171e-14)
(0.000302167 -0.000241857 5.79043e-14)
(0.00116284 -0.000460606 -2.15305e-14)
(6.16313e-05 -5.34251e-05 9.78892e-16)
(5.42825e-05 -7.63416e-05 -2.75262e-16)
(4.21331e-05 -0.000105023 6.46579e-16)
(3.18257e-05 -0.000110813 3.38154e-15)
(2.06766e-05 -0.000112402 -9.01435e-15)
(5.74746e-06 -0.000118359 -1.90841e-14)
(-8.27855e-06 -0.000117106 4.55209e-14)
(-2.07141e-05 -0.000112912 -8.91921e-15)
(-3.24844e-05 -0.000109329 5.05043e-14)
(-4.14232e-05 -0.00010296 1.03017e-13)
(-4.78612e-05 -9.48397e-05 2.22671e-14)
(-5.25897e-05 -8.661e-05 3.44751e-14)
(-5.45679e-05 -7.77969e-05 2.16522e-13)
(-5.43239e-05 -6.95431e-05 3.67191e-13)
(-5.26212e-05 -6.25837e-05 3.32829e-13)
(-4.84257e-05 -5.70485e-05 -5.40274e-15)
(-4.23126e-05 -5.26868e-05 4.05361e-13)
(-3.44336e-05 -5.13973e-05 2.67816e-14)
(-2.06746e-05 -5.35124e-05 -1.19161e-13)
(1.65227e-06 -7.72205e-05 1.57427e-13)
(-5.32181e-09 -9.76658e-05 -2.60851e-13)
(9.3675e-05 -1.45937e-05 1.10134e-13)
(0.000370594 -0.000215238 1.10507e-13)
(5.99878e-05 -0.00126164 4.4883e-14)
(-0.00138988 -0.00202879 1.20484e-13)
(-0.00262133 -0.0005796 -4.9497e-14)
(-0.00123044 0.00199047 -4.27907e-14)
(0.00070964 0.00317932 6.31791e-15)
(0.0031344 0.00185063 2.63855e-14)
(0.00135353 -5.36142e-05 -7.03063e-14)
(-0.000603395 -0.00133191 -6.8711e-14)
(-0.00256296 -0.00145991 1.40183e-13)
(-0.00327646 -0.000408818 3.15588e-14)
(-0.000757652 0.00018469 -6.03461e-14)
(0.00266029 -8.46274e-05 -4.97287e-16)
(0.0234633 -0.00727008 -1.43328e-13)
(-0.00767707 0.0031476 -5.09403e-14)
(-0.00307826 -0.000405467 -1.97408e-14)
(-0.0137997 0.00914994 -3.1897e-14)
(7.01992e-05 -4.22662e-05 -6.63898e-15)
(7.58087e-05 -3.50855e-05 -1.26862e-14)
(7.8435e-05 -2.4658e-05 6.04158e-15)
(7.76908e-05 -8.48079e-06 8.31816e-14)
(7.44262e-05 3.44896e-06 3.54649e-14)
(6.73501e-05 1.09282e-05 7.07902e-16)
(5.66334e-05 1.64725e-05 1.82773e-13)
(4.51212e-05 1.51026e-05 -8.38918e-14)
(3.67039e-05 8.29735e-06 -1.35035e-13)
(3.22999e-05 -3.52502e-07 4.91428e-14)
(3.1568e-05 -8.26478e-06 9.80662e-14)
(3.30445e-05 -1.44885e-05 -2.41897e-14)
(3.57515e-05 -1.85858e-05 6.85658e-14)
(3.87465e-05 -2.07514e-05 9.30813e-15)
(4.12557e-05 -2.12445e-05 3.53117e-14)
(4.29793e-05 -2.05178e-05 1.24892e-14)
(4.39067e-05 -1.90323e-05 -3.93438e-14)
(4.38051e-05 -1.71524e-05 3.24361e-14)
(4.29982e-05 -1.52383e-05 -2.44821e-14)
(4.16236e-05 -1.35166e-05 4.50138e-15)
(4.00192e-05 -1.21145e-05 6.5107e-14)
(3.83538e-05 -1.11612e-05 -2.25276e-14)
(3.70708e-05 -1.06344e-05 -3.04272e-14)
(3.65588e-05 -1.02189e-05 6.58052e-15)
(3.70515e-05 -9.37075e-06 -1.63338e-15)
(3.797e-05 -8.02803e-06 2.98721e-15)
(3.8945e-05 -6.3674e-06 8.56714e-15)
(4.03001e-05 -4.75518e-06 -1.47176e-15)
(4.11448e-05 -2.88569e-06 -1.40856e-16)
(4.05228e-05 -1.71252e-06 1.95106e-16)
(4.03591e-05 -1.02988e-06 1.43992e-15)
(4.75104e-05 7.84679e-08 1.80601e-16)
(6.22472e-05 4.28704e-06 -9.87145e-16)
(5.09597e-05 1.21214e-05 -1.77742e-16)
(1.36416e-05 1.32119e-05 -4.28342e-16)
(2.24533e-05 -0.000178599 4.32543e-15)
(0.000181096 -0.000101646 -8.97128e-15)
(0.000170553 0.000115633 -1.42504e-14)
(0.000544448 0.000391885 -5.28114e-14)
(5.52789e-05 -5.76116e-05 2.71827e-15)
(4.73676e-05 -7.88941e-05 -3.05072e-15)
(3.52508e-05 -0.000102289 -6.5641e-17)
(2.59847e-05 -0.000107386 2.66463e-15)
(1.48117e-05 -0.000109145 -2.03459e-15)
(4.09923e-07 -0.00011352 2.54473e-15)
(-1.26988e-05 -0.000112348 8.73267e-15)
(-2.42784e-05 -0.000108563 -1.09189e-13)
(-3.51566e-05 -0.000105295 -1.4697e-14)
(-4.35035e-05 -9.94639e-05 1.70476e-13)
(-4.93934e-05 -9.19608e-05 -7.21104e-14)
(-5.37729e-05 -8.48242e-05 -1.53075e-13)
(-5.55892e-05 -7.72278e-05 -2.98874e-13)
(-5.55672e-05 -7.02459e-05 -2.46503e-13)
(-5.40307e-05 -6.45377e-05 -1.6944e-13)
(-5.04212e-05 -5.97792e-05 -6.17303e-14)
(-4.61866e-05 -5.50172e-05 -2.26995e-13)
(-4.23508e-05 -5.31718e-05 -3.15547e-13)
(-3.18213e-05 -5.64214e-05 -1.39069e-13)
(-1.89747e-05 -7.39347e-05 3.57506e-13)
(-1.76167e-05 -9.40946e-05 3.28292e-13)
(5.44199e-05 -5.43937e-05 -2.15568e-14)
(0.000223014 -0.000225835 -5.04571e-14)
(-7.45356e-05 -0.000955494 -1.59409e-13)
(-0.00128018 -0.00136856 -9.286e-14)
(-0.00240401 -8.82387e-05 4.27697e-14)
(-0.00191803 0.00204039 3.30665e-14)
(5.99877e-05 0.00275554 3.72119e-15)
(0.0022294 0.0016273 -1.98409e-14)
(0.00306846 -0.000254045 7.40298e-14)
(0.0011911 -0.00132883 1.54703e-13)
(-0.000459749 -0.00126259 -1.04788e-14)
(-0.00163179 -0.000500321 2.72346e-14)
(-0.00106615 0.000322668 4.73952e-14)
(8.77753e-05 0.00245989 -1.85008e-14)
(-0.0134219 0.00242046 1.74085e-13)
(-0.00324271 -0.000926738 7.94528e-14)
(-0.00352946 0.00263006 -6.40082e-14)
(-0.0104895 0.0070974 -1.89377e-14)
(6.1642e-05 -4.83225e-05 1.65633e-14)
(6.76157e-05 -4.07416e-05 2.03053e-14)
(7.00706e-05 -3.04788e-05 8.21884e-15)
(7.00576e-05 -1.56353e-05 9.77e-14)
(6.78865e-05 -4.68364e-06 -1.73046e-13)
(6.18738e-05 3.30084e-06 8.97389e-14)
(5.31993e-05 8.3439e-06 1.5156e-13)
(4.54057e-05 6.96085e-06 6.6242e-14)
(3.9899e-05 2.44471e-06 -3.67947e-14)
(3.69413e-05 -3.39912e-06 -3.43624e-14)
(3.61835e-05 -8.77409e-06 2.17045e-14)
(3.68961e-05 -1.31148e-05 3.71884e-14)
(3.84735e-05 -1.61443e-05 -8.99177e-14)
(4.03464e-05 -1.79073e-05 6.45166e-14)
(4.1952e-05 -1.84548e-05 1.64818e-14)
(4.30563e-05 -1.80307e-05 -1.11059e-14)
(4.36021e-05 -1.70264e-05 -5.77501e-14)
(4.33762e-05 -1.55988e-05 -5.77494e-14)
(4.25774e-05 -1.40828e-05 4.89962e-14)
(4.13063e-05 -1.26636e-05 1.42858e-14)
(3.98195e-05 -1.1502e-05 4.90984e-15)
(3.82845e-05 -1.06613e-05 5.15995e-14)
(3.70519e-05 -1.01579e-05 2.09198e-14)
(3.64988e-05 -9.70335e-06 -2.44622e-15)
(3.68543e-05 -8.9442e-06 6.82624e-15)
(3.76843e-05 -7.69745e-06 -4.7481e-15)
(3.8646e-05 -6.16148e-06 -9.33753e-15)
(4.00147e-05 -4.53274e-06 1.37019e-15)
(4.08837e-05 -2.67571e-06 -1.20135e-15)
(4.03729e-05 -1.29832e-06 -4.1068e-16)
(4.02108e-05 -6.18426e-07 -1.06076e-15)
(4.71553e-05 8.90262e-07 1.15083e-15)
(6.18542e-05 5.863e-06 2.86139e-15)
(5.19243e-05 1.10959e-05 2.42055e-15)
(2.83042e-05 1.03495e-06 1.38494e-15)
(0.00011706 -1.35857e-05 -5.2634e-15)
(0.000190913 5.44382e-05 3.20826e-15)
(0.000151347 0.000124715 3.60454e-14)
(0.000160967 0.000590012 4.11095e-14)
(4.79459e-05 -6.16065e-05 7.45409e-16)
(4.08536e-05 -7.89889e-05 1.78231e-15)
(2.9206e-05 -9.77039e-05 -2.5684e-15)
(2.02487e-05 -0.000103466 3.64666e-15)
(8.7471e-06 -0.000104548 -7.18444e-15)
(-5.09894e-06 -0.000108027 1.08664e-14)
(-1.75012e-05 -0.000106886 -1.3181e-14)
(-2.85755e-05 -0.000103241 -2.47124e-14)
(-3.89505e-05 -9.99384e-05 -3.28608e-14)
(-4.68996e-05 -9.42186e-05 -4.65139e-14)
(-5.26544e-05 -8.7035e-05 1.86693e-14)
(-5.70933e-05 -8.02775e-05 1.77961e-13)
(-5.91288e-05 -7.32601e-05 2.41112e-13)
(-5.94422e-05 -6.68111e-05 3.87507e-14)
(-5.84856e-05 -6.15109e-05 4.91631e-15)
(-5.57478e-05 -5.68837e-05 1.13682e-14)
(-5.12484e-05 -5.38637e-05 -4.05339e-14)
(-4.825e-05 -5.42922e-05 1.28419e-13)
(-4.38309e-05 -5.7713e-05 1.17378e-13)
(-3.54175e-05 -6.97496e-05 -2.70504e-13)
(-3.3442e-05 -9.01787e-05 -2.75394e-14)
(6.50065e-06 -8.77199e-05 5.69525e-14)
(8.35899e-05 -0.000226332 -7.35859e-14)
(-0.000171825 -0.000712018 7.80076e-14)
(-0.00106036 -0.000934255 1.13771e-15)
(-0.00182463 8.0216e-05 -1.45174e-14)
(-0.00128047 0.00173654 -4.25892e-14)
(0.000473107 0.00229137 1.7529e-15)
(0.00194499 0.00134343 -4.28798e-17)
(0.00204393 -0.000153255 3.50212e-14)
(0.00106688 -0.00110801 1.70217e-14)
(-0.000126048 -0.00107798 -7.45386e-14)
(-0.00103435 -0.00048763 -3.44043e-14)
(-0.00116478 0.000162565 1.72303e-13)
(-0.00126887 0.00075855 2.68259e-14)
(-0.00909717 0.00580978 -1.2764e-13)
(0.00546458 -0.00171211 -4.21403e-14)
(-0.0117776 0.00581271 5.05026e-14)
(-0.00502972 0.00153702 -1.73563e-15)
(5.44808e-05 -5.20621e-05 3.43914e-15)
(5.99992e-05 -4.43771e-05 -4.8742e-14)
(6.2465e-05 -3.48227e-05 2.41587e-14)
(6.29076e-05 -2.08283e-05 2.13206e-14)
(6.14344e-05 -1.08448e-05 4.61674e-14)
(5.70795e-05 -2.86566e-06 -1.54634e-14)
(5.07553e-05 1.48914e-06 -3.71498e-14)
(4.54654e-05 5.50591e-07 -3.78741e-15)
(4.192e-05 -2.3423e-06 -2.62793e-15)
(4.0128e-05 -6.04253e-06 1.39788e-14)
(3.95764e-05 -9.51404e-06 4.01249e-14)
(3.99581e-05 -1.23368e-05 6.60048e-14)
(4.08442e-05 -1.43932e-05 -4.62629e-15)
(4.19653e-05 -1.55985e-05 -1.34747e-13)
(4.28646e-05 -1.6025e-05 2.62857e-14)
(4.34546e-05 -1.57564e-05 7.69863e-14)
(4.36317e-05 -1.50368e-05 5.91136e-14)
(4.32271e-05 -1.39477e-05 2.68665e-14)
(4.24005e-05 -1.27583e-05 -2.22931e-14)
(4.11766e-05 -1.15509e-05 -5.94893e-15)
(3.97805e-05 -1.0567e-05 -2.35505e-14)
(3.83362e-05 -9.80627e-06 -4.32072e-14)
(3.71501e-05 -9.29719e-06 1.77986e-14)
(3.65337e-05 -8.81837e-06 1.67717e-14)
(3.67634e-05 -8.09925e-06 2.99203e-15)
(3.74695e-05 -6.95329e-06 1.69889e-14)
(3.83957e-05 -5.49016e-06 5.94041e-15)
(3.97305e-05 -3.87847e-06 -1.00105e-15)
(4.06434e-05 -1.89994e-06 1.12607e-15)
(4.02184e-05 -3.83534e-07 4.59681e-16)
(4.00408e-05 3.82421e-07 -1.2875e-15)
(4.67511e-05 1.48743e-06 -1.52271e-15)
(6.10637e-05 5.78422e-06 -7.61841e-16)
(5.04562e-05 1.32352e-05 -4.20728e-16)
(2.64409e-05 9.88744e-06 2.76721e-15)
(0.000109286 -3.56766e-06 -4.82071e-16)
(0.000187007 2.93481e-05 1.16826e-14)
(0.000168818 8.42454e-05 -1.28355e-14)
(0.00051946 0.000182711 -6.19245e-15)
(4.18031e-05 -6.25163e-05 3.83316e-15)
(3.47767e-05 -7.91426e-05 -1.38069e-15)
(2.45018e-05 -9.39916e-05 -2.6088e-15)
(1.57382e-05 -9.90557e-05 -3.57697e-15)
(4.33187e-06 -0.000100154 1.34918e-14)
(-8.92186e-06 -0.000102936 -1.80148e-14)
(-2.06906e-05 -0.000101941 -5.31742e-15)
(-3.11743e-05 -9.86017e-05 3.49403e-14)
(-4.09854e-05 -9.54995e-05 1.94606e-14)
(-4.85943e-05 -9.00876e-05 3.56096e-14)
(-5.42144e-05 -8.35066e-05 8.00844e-14)
(-5.86246e-05 -7.73791e-05 6.46417e-14)
(-6.08871e-05 -7.10955e-05 -1.52414e-13)
(-6.15582e-05 -6.5328e-05 -2.45573e-13)
(-6.11782e-05 -6.05197e-05 4.21369e-14)
(-5.90562e-05 -5.66198e-05 3.12378e-13)
(-5.55721e-05 -5.3983e-05 6.40582e-14)
(-5.40614e-05 -5.33069e-05 -1.77644e-13)
(-5.37546e-05 -5.68502e-05 -3.36319e-14)
(-4.85602e-05 -6.65928e-05 3.07004e-14)
(-4.86797e-05 -8.56344e-05 -6.90805e-14)
(-3.09212e-05 -0.000102534 -8.93599e-14)
(-9.32122e-06 -0.000223581 1.02187e-14)
(-0.000229551 -0.000558393 6.91387e-14)
(-0.00088768 -0.000664375 6.00084e-14)
(-0.00144508 0.000143285 -3.41336e-15)
(-0.000981533 0.00145346 3.58797e-14)
(0.000446055 0.00192351 6.43401e-15)
(0.0016109 0.00112412 6.16358e-14)
(0.00160372 -0.000168135 -4.58642e-14)
(0.000722277 -0.000985129 -1.60001e-13)
(-0.000209717 -0.000968279 -5.10124e-14)
(-0.000843232 -0.000471354 2.84608e-14)
(-0.000979205 8.25095e-05 1.5449e-14)
(-0.000655812 0.000389917 -4.2852e-15)
(0.000594579 -0.000479048 5.12169e-15)
(4.95942e-05 -0.00100184 1.81879e-14)
(0.00579174 -0.00579949 4.46099e-15)
(0.00493943 0.00365189 2.44922e-14)
(4.82636e-05 -5.38793e-05 -8.58976e-15)
(5.30842e-05 -4.71129e-05 -7.7177e-15)
(5.59006e-05 -3.74513e-05 -1.34545e-14)
(5.6802e-05 -2.45835e-05 -1.72127e-14)
(5.60877e-05 -1.58427e-05 2.98369e-14)
(5.2986e-05 -8.08434e-06 -4.30609e-14)
(4.86566e-05 -4.15336e-06 -1.7219e-14)
(4.53114e-05 -4.51359e-06 6.62143e-14)