/*--------------------------------*- C++ -*----------------------------------*\
| =========                 |                                                 |
| \\      /  F ield         | OpenFOAM: The Open Source CFD Toolbox           |
|  \\    /   O peration     | Version:  2312                                  |
|   \\  /    A nd           | Website:  www.openfoam.com                      |
|    \\/     M anipulation  |                                                 |
\*---------------------------------------------------------------------------*/
FoamFile
{
    version     2.0;
    format      ascii;
    arch        "LSB;label=32;scalar=64";
    class       volScalarField;
    location    "400";
    object      nut;
}
// * * * * * * * * * * * * * * * * * * * * * * * * * * * * * * * * * * * * * //

dimensions      [0 2 -1 0 0 0 0];

internalField   nonuniform List<scalar> 
10720
(
2.5808e-05
2.95347e-05
3.45224e-05
4.09851e-05
4.93088e-05
6.00253e-05
7.38546e-05
9.11588e-05
0.000112975
0.000140349
0.000175234
0.000220745
0.000281313
0.000364892
0.000485068
0.000663862
0.000945884
0.00139526
0.0022174
0.00358939
0.00690141
0.0127114
0.0339138
0.0760492
0.0937364
0.0946611
0.0956981
0.0992329
0.102752
0.10449
0.104465
0.103214
0.100844
0.0974121
0.0927926
0.0869115
0.0784489
0.0683186
0.0332559
2.25824e-05
1.98038e-05
1.70736e-05
1.45837e-05
1.22497e-05
1.01071e-05
8.2445e-06
6.96115e-06
8.09649e-06
1.07909e-05
1.54814e-05
2.3227e-05
3.55761e-05
5.44542e-05
8.13876e-05
0.000117945
0.000167179
0.000236277
0.000339384
0.000501811
0.000773255
0.00124196
0.00211757
0.0037699
0.00732809
0.0147229
0.0324777
0.0663217
0.0934697
0.105025
0.108433
0.109375
0.109471
0.108975
0.107974
0.106577
0.104431
0.101996
0.0924606
5.08548e-06
4.98033e-06
4.88546e-06
4.80683e-06
4.71663e-06
4.6338e-06
4.57246e-06
4.51875e-06
4.49564e-06
4.51593e-06
4.54347e-06
4.81844e-06
5.87876e-06
8.65245e-06
1.6411e-05
3.6806e-05
8.38819e-05
0.000162778
0.00031534
0.000588486
0.00132199
0.00283133
0.00711559
0.0205092
0.0395198
0.0632679
0.0924769
0.123631
0.148688
0.162658
0.167962
0.168789
0.167204
0.163854
0.159341
0.15384
0.148529
0.139509
0.139918
5.16908e-06
5.28233e-06
5.37885e-06
5.50984e-06
5.64413e-06
5.78002e-06
5.91116e-06
6.02176e-06
5.95913e-06
5.8177e-06
5.6246e-06
5.39031e-06
5.12407e-06
4.82943e-06
4.49571e-06
4.11974e-06
3.67667e-06
3.16244e-06
2.54828e-06
1.84351e-06
1.07405e-06
4.20531e-07
5.41012e-08
1.46922e-09
9.3081e-09
9.37214e-05
0.000539959
0.00415678
0.0141156
0.0287197
0.0437273
0.0550627
0.0618255
0.0656073
0.0680051
0.0699953
0.071727
0.075299
0.07846
6.26616e-06
6.2835e-06
6.30147e-06
6.3208e-06
6.3445e-06
6.371e-06
6.40132e-06
6.43678e-06
6.47863e-06
6.52763e-06
6.58583e-06
6.65752e-06
6.73676e-06
6.87922e-06
6.89029e-06
6.4764e-06
4.7469e-06
3.89378e-06
4.18581e-07
2.15973e-13
0.000254923
4.75699e-06
0.0014743
0.000524849
0.00289183
0.00740252
0.0154818
0.0309893
0.0573311
0.093753
0.132799
0.164511
0.184922
0.196758
0.203448
0.206327
0.207575
0.201484
0.210278
6.2529e-06
6.23387e-06
6.21932e-06
6.19774e-06
6.1792e-06
6.15928e-06
6.14154e-06
6.12752e-06
6.13229e-06
6.14725e-06
6.16688e-06
6.19086e-06
6.2202e-06
6.25305e-06
6.29008e-06
6.33101e-06
6.37749e-06
6.43078e-06
6.49449e-06
6.57194e-06
6.67138e-06
6.79894e-06
6.98021e-06
7.17352e-06
7.43589e-06
7.15665e-06
7.24722e-06
2.48426e-06
8.36894e-05
0.000790357
0.00301747
0.00754202
0.0142528
0.0224359
0.0311563
0.039599
0.0470028
0.0536744
0.0631672
6.08613e-06
6.08374e-06
6.08313e-06
6.0835e-06
6.08443e-06
6.08709e-06
6.09198e-06
6.09872e-06
6.10877e-06
6.12237e-06
6.14033e-06
6.16385e-06
6.19444e-06
6.23315e-06
6.28494e-06
6.34069e-06
6.21757e-06
5.96334e-06
4.17672e-06
1.2635e-06
1.58591e-08
7.60104e-08
0
8.41122e-05
0.000603265
0.00162852
0.00137226
0.00169227
0.00379812
0.0135328
0.0356871
0.0728115
0.118851
0.161342
0.193223
0.215355
0.231946
0.239147
0.255243
6.08681e-06
6.08915e-06
6.09227e-06
6.09447e-06
6.09826e-06
6.1003e-06
6.10162e-06
6.10255e-06
6.1004e-06
6.09771e-06
6.09423e-06
6.09049e-06
6.08703e-06
6.08361e-06
6.08028e-06
6.07679e-06
6.07312e-06
6.06912e-06
6.06406e-06
6.05898e-06
6.05362e-06
6.04789e-06
6.04109e-06
6.03482e-06
6.02804e-06
6.03037e-06
6.02311e-06
6.08258e-06
5.99884e-06
5.95299e-06
5.20754e-06
4.15619e-06
0.00022638
0.00104481
0.003042
0.00687916
0.0131186
0.021834
0.0392184
6.1112e-06
6.11176e-06
6.11203e-06
6.11292e-06
6.11447e-06
6.11644e-06
6.11911e-06
6.12268e-06
6.12738e-06
6.13356e-06
6.14165e-06
6.15222e-06
6.16611e-06
6.18391e-06
6.20814e-06
6.23635e-06
6.27821e-06
6.30004e-06
6.4929e-06
6.2815e-06
5.02002e-06
1.86418e-06
1.82871e-08
1.02992e-09
0
0
0.000289731
0.000365122
0.000852296
0.000475761
0.00164538
0.00804288
0.0296158
0.0707222
0.124117
0.175048
0.217174
0.248041
0.278268
6.11124e-06
6.10987e-06
6.11056e-06
6.10951e-06
6.11039e-06
6.10919e-06
6.10707e-06
6.10518e-06
6.10412e-06
6.10387e-06
6.10386e-06
6.10377e-06
6.10411e-06
6.10465e-06
6.10561e-06
6.10685e-06
6.1084e-06
6.11024e-06
6.11243e-06
6.1149e-06
6.11767e-06
6.1207e-06
6.12414e-06
6.12794e-06
6.13288e-06
6.13716e-06
6.15041e-06
6.13005e-06
6.27275e-06
5.69502e-06
8.70948e-06
5.81219e-07
2.55987e-05
0.000245296
0.000728403
0.000716145
0.00123866
0.00163746
0.0137045
6.10507e-06
6.10485e-06
6.10515e-06
6.1054e-06
6.1055e-06
6.1059e-06
6.1065e-06
6.10728e-06
6.10849e-06
6.11019e-06
6.1125e-06
6.11572e-06
6.12009e-06
6.12598e-06
6.13413e-06
6.14507e-06
6.15928e-06
6.17543e-06
6.2335e-06
6.28015e-06
6.64294e-06
6.44247e-06
5.2933e-06
7.06576e-07
1.19018e-08
2.58911e-09
3.38685e-10
0
0
8.12446e-05
0.000366619
0.00183616
0.000398129
0.00875121
0.0380669
0.0932736
0.160396
0.223986
0.278317
6.1046e-06
6.10391e-06
6.10482e-06
6.1046e-06
6.10631e-06
6.10604e-06
6.10467e-06
6.10346e-06
6.10248e-06
6.10189e-06
6.10145e-06
6.10097e-06
6.10072e-06
6.10055e-06
6.10054e-06
6.10057e-06
6.10069e-06
6.10089e-06
6.10114e-06
6.1014e-06
6.10163e-06
6.10175e-06
6.10182e-06
6.10147e-06
6.1014e-06
6.10172e-06
6.10213e-06
6.10391e-06
6.10347e-06
6.11253e-06
6.09538e-06
6.19877e-06
5.60385e-06
4.20182e-06
2.89486e-09
0.000160087
0.000289586
0.000428432
0.00237524
6.10531e-06
6.10553e-06
6.10569e-06
6.10573e-06
6.10586e-06
6.10595e-06
6.10613e-06
6.10647e-06
6.10694e-06
6.10765e-06
6.10869e-06
6.11016e-06
6.11222e-06
6.11509e-06
6.11904e-06
6.12465e-06
6.13206e-06
6.13988e-06
6.1512e-06
6.15901e-06
6.20755e-06
6.36308e-06
7.00603e-06
6.51209e-06
3.88928e-06
1.56633e-06
2.01071e-07
9.8275e-09
3.26383e-09
2.15404e-11
0
0
6.20967e-05
0.00205653
0.0016745
0.0217134
0.0781938
0.166164
0.252294
6.10484e-06
6.10378e-06
6.10417e-06
6.10385e-06
6.10551e-06
6.10544e-06
6.10425e-06
6.10309e-06
6.1022e-06
6.10169e-06
6.10133e-06
6.10113e-06
6.10101e-06
6.10106e-06
6.10101e-06
6.10105e-06
6.10122e-06
6.10145e-06
6.10179e-06
6.1022e-06
6.10271e-06
6.10329e-06
6.10396e-06
6.10476e-06
6.10574e-06
6.10703e-06
6.1087e-06
6.11079e-06
6.11343e-06
6.1168e-06
6.12092e-06
6.12581e-06
6.1496e-06
5.52428e-06
3.40398e-06
5.8596e-08
1.17145e-08
1.45747e-11
5.58844e-05
6.10489e-06
6.10503e-06
6.10531e-06
6.10529e-06
6.10511e-06
6.10498e-06
6.10483e-06
6.10466e-06
6.10462e-06
6.10462e-06
6.10471e-06
6.10494e-06
6.10531e-06
6.1059e-06
6.1068e-06
6.10817e-06
6.1102e-06
6.11247e-06
6.11545e-06
6.1204e-06
6.11072e-06
6.11382e-06
6.23626e-06
6.6972e-06
6.96426e-06
6.67223e-06
5.55859e-06
3.50711e-06
1.69366e-06
1.12469e-08
6.81193e-09
1.06447e-11
0
0
0.00038504
0.00541475
0.016129
0.0903485
0.200024
6.10429e-06
6.10315e-06
6.10315e-06
6.10273e-06
6.10435e-06
6.10449e-06
6.10359e-06
6.10255e-06
6.10175e-06
6.10129e-06
6.10098e-06
6.10081e-06
6.10074e-06
6.10083e-06
6.10091e-06
6.10103e-06
6.1011e-06
6.10111e-06
6.10119e-06
6.10129e-06
6.10142e-06
6.10156e-06
6.10172e-06
6.10188e-06
6.102e-06
6.10217e-06
6.1024e-06
6.10266e-06
6.10292e-06
6.10302e-06
6.10349e-06
6.10079e-06
6.11175e-06
6.07739e-06
6.31419e-06
6.02081e-06
3.67176e-06
1.83311e-08
4.97288e-07
6.10482e-06
6.10495e-06
6.10509e-06
6.10491e-06
6.10472e-06
6.10444e-06
6.10421e-06
6.10409e-06
6.10397e-06
6.10391e-06
6.10394e-06
6.10403e-06
6.10427e-06
6.10467e-06
6.10529e-06
6.10623e-06
6.10766e-06
6.10954e-06
6.11132e-06
6.11394e-06
6.1146e-06
6.10832e-06
6.08591e-06
6.15778e-06
6.38444e-06
6.66274e-06
7.00885e-06
7.16689e-06
6.88042e-06
4.78907e-06
2.70487e-06
5.18193e-09
2.97349e-09
0
0
0
0.00440388
0.030258
0.132969
6.10424e-06
6.10299e-06
6.10264e-06
6.10205e-06
6.10358e-06
6.10384e-06
6.10315e-06
6.10219e-06
6.10149e-06
6.10105e-06
6.1008e-06
6.10067e-06
6.10061e-06
6.10069e-06
6.10078e-06
6.10093e-06
6.10107e-06
6.1012e-06
6.1013e-06
6.1013e-06
6.10137e-06
6.10148e-06
6.10165e-06
6.10183e-06
6.10205e-06
6.10239e-06
6.10289e-06
6.10356e-06
6.10442e-06
6.10548e-06
6.10685e-06
6.10836e-06
6.11076e-06
6.10698e-06
6.12485e-06
6.18219e-06
6.67737e-06
4.56512e-06
2.61277e-09
6.10473e-06
6.10474e-06
6.10475e-06
6.10447e-06
6.10417e-06
6.10388e-06
6.10359e-06
6.10336e-06
6.10314e-06
6.10296e-06
6.1028e-06
6.10269e-06
6.10261e-06
6.10256e-06
6.10253e-06
6.10252e-06
6.1026e-06
6.10269e-06
6.10285e-06
6.10351e-06
6.10541e-06
6.10688e-06
6.09945e-06
6.08546e-06
6.10306e-06
6.17244e-06
6.33092e-06
6.57518e-06
6.89223e-06
7.22553e-06
7.41672e-06
5.05215e-06
1.16851e-06
1.07903e-08
0
0
2.88972e-05
0.00302841
0.0730063
6.10423e-06
6.10296e-06
6.10231e-06
6.10153e-06
6.10294e-06
6.10328e-06
6.10272e-06
6.10185e-06
6.10125e-06
6.10086e-06
6.10071e-06
6.10054e-06
6.10046e-06
6.10052e-06
6.10059e-06
6.10074e-06
6.10091e-06
6.10109e-06
6.10125e-06
6.1014e-06
6.1015e-06
6.10159e-06
6.10158e-06
6.1016e-06
6.10164e-06
6.10173e-06
6.10192e-06
6.10219e-06
6.10253e-06
6.10295e-06
6.10337e-06
6.1041e-06
6.10369e-06
6.10873e-06
6.08876e-06
6.18613e-06
5.83401e-06
8.77734e-06
5.67157e-07
6.10461e-06
6.10447e-06
6.10434e-06
6.104e-06
6.10365e-06
6.10332e-06
6.10303e-06
6.10283e-06
6.10264e-06
6.1025e-06
6.10241e-06
6.10234e-06
6.10233e-06
6.10236e-06
6.10247e-06
6.10267e-06
6.10299e-06
6.1035e-06
6.10407e-06
6.10459e-06
6.10524e-06
6.10632e-06
6.1068e-06
6.10197e-06
6.09357e-06
6.08967e-06
6.09879e-06
6.14278e-06
6.2297e-06
6.45473e-06
6.83504e-06
7.57382e-06
7.13631e-06
3.01748e-06
1.58276e-08
0
0
0.00140466
0.0333186
6.10425e-06
6.103e-06
6.10214e-06
6.1012e-06
6.10245e-06
6.10283e-06
6.10236e-06
6.10157e-06
6.10105e-06
6.10072e-06
6.10057e-06
6.10041e-06
6.1003e-06
6.10031e-06
6.10037e-06
6.10051e-06
6.10067e-06
6.10087e-06
6.10105e-06
6.10123e-06
6.10139e-06
6.10154e-06
6.10165e-06
6.10173e-06
6.10178e-06
6.10185e-06
6.102e-06
6.10223e-06
6.10256e-06
6.103e-06
6.10351e-06
6.10437e-06
6.10434e-06
6.10884e-06
6.09345e-06
6.16474e-06
5.85918e-06
7.15578e-06
4.36284e-06
6.10443e-06
6.10414e-06
6.10391e-06
6.10353e-06
6.10316e-06
6.10282e-06
6.10253e-06
6.10233e-06
6.10214e-06
6.10201e-06
6.10191e-06
6.10182e-06
6.10176e-06
6.10173e-06
6.10172e-06
6.10176e-06
6.10184e-06
6.10197e-06
6.10219e-06
6.10259e-06
6.10318e-06
6.10407e-06
6.1053e-06
6.10596e-06
6.10474e-06
6.10193e-06
6.0969e-06
6.09207e-06
6.08511e-06
6.10473e-06
6.16114e-06
6.47993e-06
7.17866e-06
7.77261e-06
4.01507e-06
1.05808e-08
0
0.000281235
0.0130391
6.10423e-06
6.10306e-06
6.10205e-06
6.10095e-06
6.10207e-06
6.10244e-06
6.10204e-06
6.10131e-06
6.10085e-06
6.10056e-06
6.10041e-06
6.10028e-06
6.10014e-06
6.10012e-06
6.10013e-06
6.10024e-06
6.10039e-06
6.10058e-06
6.10077e-06
6.10099e-06
6.10119e-06
6.1014e-06
6.10159e-06
6.10174e-06
6.10189e-06
6.10197e-06
6.10201e-06
6.1021e-06
6.10225e-06
6.10249e-06
6.10279e-06
6.10322e-06
6.10347e-06
6.10504e-06
6.10154e-06
6.119e-06
6.05997e-06
6.20519e-06
6.16206e-06
6.10419e-06
6.10377e-06
6.10347e-06
6.10308e-06
6.10271e-06
6.10237e-06
6.1021e-06
6.10192e-06
6.10176e-06
6.10167e-06
6.1016e-06
6.10155e-06
6.10153e-06
6.10153e-06
6.10155e-06
6.10161e-06
6.10172e-06
6.10189e-06
6.10214e-06
6.10246e-06
6.10284e-06
6.10335e-06
6.10409e-06
6.10502e-06
6.10586e-06
6.10665e-06
6.10721e-06
6.10661e-06
6.10121e-06
6.0897e-06
6.06801e-06
6.06528e-06
6.23544e-06
6.78532e-06
8.52671e-06
2.52605e-06
1.548e-12
7.31142e-05
0.00433784
6.10416e-06
6.10311e-06
6.10202e-06
6.1008e-06
6.10176e-06
6.10211e-06
6.10175e-06
6.10109e-06
6.10067e-06
6.10039e-06
6.10023e-06
6.1001e-06
6.09996e-06
6.0999e-06
6.0999e-06
6.09998e-06
6.10011e-06
6.10029e-06
6.1005e-06
6.10074e-06
6.10098e-06
6.10122e-06
6.10144e-06
6.10165e-06
6.10184e-06
6.10198e-06
6.10205e-06
6.10208e-06
6.10217e-06
6.10232e-06
6.10256e-06
6.10287e-06
6.1033e-06
6.10368e-06
6.10474e-06
6.10283e-06
6.11702e-06
6.05286e-06
6.25706e-06
6.10389e-06
6.10339e-06
6.10305e-06
6.10267e-06
6.1023e-06
6.10197e-06
6.10173e-06
6.10158e-06
6.10147e-06
6.10141e-06
6.10138e-06
6.10136e-06
6.10135e-06
6.10135e-06
6.10136e-06
6.10141e-06
6.10147e-06
6.10158e-06
6.10172e-06
6.10195e-06
6.10227e-06
6.10269e-06
6.10325e-06
6.10397e-06
6.10482e-06
6.10585e-06
6.10733e-06
6.10941e-06
6.11144e-06
6.11027e-06
6.10248e-06
6.07287e-06
6.0467e-06
6.07521e-06
6.68159e-06
1.04367e-05
1.17057e-08
1.33536e-06
0.0011064
6.10402e-06
6.10312e-06
6.10199e-06
6.10069e-06
6.1015e-06
6.10183e-06
6.1015e-06
6.10089e-06
6.10049e-06
6.10022e-06
6.10006e-06
6.09993e-06
6.09977e-06
6.09969e-06
6.09967e-06
6.09974e-06
6.09986e-06
6.10003e-06
6.10024e-06
6.10048e-06
6.10072e-06
6.10099e-06
6.10124e-06
6.10148e-06
6.10171e-06
6.10189e-06
6.10202e-06
6.10208e-06
6.10211e-06
6.10218e-06
6.10231e-06
6.10251e-06
6.10282e-06
6.10303e-06
6.10411e-06
6.10209e-06
6.11259e-06
6.08141e-06
6.14633e-06
6.10356e-06
6.10303e-06
6.10266e-06
6.10229e-06
6.10193e-06
6.10161e-06
6.10142e-06
6.10132e-06
6.10126e-06
6.10125e-06
6.10125e-06
6.10126e-06
6.10128e-06
6.10132e-06
6.10134e-06
6.10139e-06
6.10145e-06
6.10155e-06
6.10168e-06
6.10186e-06
6.1021e-06
6.10241e-06
6.10281e-06
6.10335e-06
6.10405e-06
6.1049e-06
6.10599e-06
6.10757e-06
6.11002e-06
6.11294e-06
6.11523e-06
6.11292e-06
6.07961e-06
6.10512e-06
5.64146e-06
9.29597e-06
2.36175e-06
3.1971e-10
6.81658e-05
6.10383e-06
6.10309e-06
6.10198e-06
6.10063e-06
6.10129e-06
6.10157e-06
6.10126e-06
6.1007e-06
6.10032e-06
6.10004e-06
6.09987e-06
6.09974e-06
6.09958e-06
6.0995e-06
6.09946e-06
6.09951e-06
6.09961e-06
6.09977e-06
6.09996e-06
6.1002e-06
6.10045e-06
6.10073e-06
6.101e-06
6.10127e-06
6.10152e-06
6.10175e-06
6.10192e-06
6.10204e-06
6.1021e-06
6.10213e-06
6.1022e-06
6.10232e-06
6.10253e-06
6.10276e-06
6.10327e-06
6.10312e-06
6.10556e-06
6.1021e-06
6.10728e-06
6.10324e-06
6.10271e-06
6.10231e-06
6.10194e-06
6.10161e-06
6.10134e-06
6.1012e-06
6.10115e-06
6.10114e-06
6.10117e-06
6.10121e-06
6.10126e-06
6.10131e-06
6.10135e-06
6.10139e-06
6.10144e-06
6.10149e-06
6.10157e-06
6.10166e-06
6.1018e-06
6.10199e-06
6.10224e-06
6.10256e-06
6.10298e-06
6.10355e-06
6.10428e-06
6.10518e-06
6.1063e-06
6.10781e-06
6.11019e-06
6.11269e-06
6.12017e-06
6.10317e-06
6.16532e-06
5.81531e-06
6.43606e-06
9.66072e-06
5.03084e-11
6.447e-07
6.10361e-06
6.10301e-06
6.10194e-06
6.10058e-06
6.1011e-06
6.10133e-06
6.10104e-06
6.10053e-06
6.10015e-06
6.09987e-06
6.0997e-06
6.09957e-06
6.0994e-06
6.0993e-06
6.09926e-06
6.0993e-06
6.09939e-06
6.09954e-06
6.09972e-06
6.09995e-06
6.1002e-06
6.10048e-06
6.10076e-06
6.10105e-06
6.10133e-06
6.10158e-06
6.1018e-06
6.10196e-06
6.10208e-06
6.10213e-06
6.10216e-06
6.10222e-06
6.10234e-06
6.10252e-06
6.10278e-06
6.10316e-06
6.10337e-06
6.10574e-06
6.10269e-06
6.10293e-06
6.10239e-06
6.10197e-06
6.10163e-06
6.10134e-06
6.10112e-06
6.10104e-06
6.10104e-06
6.10108e-06
6.10115e-06
6.10123e-06
6.10129e-06
6.10136e-06
6.10141e-06
6.10146e-06
6.10152e-06
6.10157e-06
6.10164e-06
6.10172e-06
6.10184e-06
6.10199e-06
6.10219e-06
6.10245e-06
6.10278e-06
6.10324e-06
6.10385e-06
6.10465e-06
6.10562e-06
6.10673e-06
6.10832e-06
6.10982e-06
6.11487e-06
6.11318e-06
6.12474e-06
6.19087e-06
5.26909e-06
1.21077e-05
3.76398e-10
2.28456e-16
6.10336e-06
6.10291e-06
6.10189e-06
6.10054e-06
6.10093e-06
6.10112e-06
6.10084e-06
6.10036e-06
6.09997e-06
6.09969e-06
6.09952e-06
6.09938e-06
6.09922e-06
6.09913e-06
6.09908e-06
6.09911e-06
6.09919e-06
6.09932e-06
6.09949e-06
6.09971e-06
6.09995e-06
6.10023e-06
6.10053e-06
6.10083e-06
6.10113e-06
6.1014e-06
6.10164e-06
6.10183e-06
6.10199e-06
6.1021e-06
6.10215e-06
6.10217e-06
6.10223e-06
6.10234e-06
6.10252e-06
6.10284e-06
6.10296e-06
6.10489e-06
6.10359e-06
6.10263e-06
6.10209e-06
6.10166e-06
6.10135e-06
6.10111e-06
6.10096e-06
6.10094e-06
6.101e-06
6.10107e-06
6.10117e-06
6.10126e-06
6.10135e-06
6.10143e-06
6.1015e-06
6.10156e-06
6.10162e-06
6.10167e-06
6.10174e-06
6.10181e-06
6.10191e-06
6.10204e-06
6.1022e-06
6.10242e-06
6.10269e-06
6.10307e-06
6.10358e-06
6.10426e-06
6.10512e-06
6.10612e-06
6.10733e-06
6.1088e-06
6.10997e-06
6.11887e-06
6.08362e-06
6.3112e-06
5.30846e-06
9.45946e-06
1.61894e-06
5.32771e-10
6.10309e-06
6.10277e-06
6.10183e-06
6.10051e-06
6.10078e-06
6.10091e-06
6.10065e-06
6.10019e-06
6.09981e-06
6.09952e-06
6.09935e-06
6.0992e-06
6.09905e-06
6.09895e-06
6.09891e-06
6.09894e-06
6.099e-06
6.09912e-06
6.09928e-06
6.09949e-06
6.09972e-06
6.1e-06
6.1003e-06
6.1006e-06
6.10091e-06
6.10119e-06
6.10145e-06
6.10168e-06
6.10187e-06
6.10202e-06
6.10212e-06
6.10217e-06
6.10219e-06
6.10224e-06
6.10237e-06
6.10258e-06
6.10279e-06
6.10404e-06
6.10382e-06
6.10234e-06
6.10182e-06
6.10138e-06
6.10112e-06
6.10094e-06
6.10085e-06
6.10089e-06
6.10098e-06
6.10109e-06
6.10121e-06
6.10132e-06
6.10142e-06
6.10151e-06
6.10159e-06
6.10165e-06
6.10171e-06
6.10177e-06
6.10183e-06
6.1019e-06
6.10198e-06
6.10209e-06
6.10223e-06
6.10241e-06
6.10264e-06
6.10295e-06
6.10338e-06
6.10397e-06
6.10472e-06
6.10564e-06
6.10663e-06
6.10827e-06
6.10784e-06
6.11876e-06
6.08132e-06
6.24408e-06
5.74317e-06
6.92483e-06
6.85603e-06
8.97981e-08
6.10282e-06
6.10261e-06
6.10174e-06
6.10046e-06
6.10063e-06
6.10072e-06
6.10046e-06
6.10002e-06
6.09964e-06
6.09936e-06
6.09918e-06
6.09902e-06
6.09888e-06
6.0988e-06
6.09876e-06
6.09878e-06
6.09884e-06
6.09895e-06
6.0991e-06
6.09929e-06
6.09952e-06
6.09979e-06
6.10008e-06
6.10038e-06
6.10069e-06
6.10098e-06
6.10125e-06
6.1015e-06
6.10172e-06
6.1019e-06
6.10204e-06
6.10214e-06
6.10219e-06
6.1022e-06
6.10227e-06
6.10241e-06
6.10261e-06
6.10359e-06
6.10356e-06
6.10208e-06
6.10157e-06
6.10113e-06
6.10093e-06
6.10081e-06
6.10079e-06
6.10088e-06
6.101e-06
6.10112e-06
6.10125e-06
6.10138e-06
6.10149e-06
6.10158e-06
6.10167e-06
6.10174e-06
6.10182e-06
6.10188e-06
6.10195e-06
6.10201e-06
6.10209e-06
6.10219e-06
6.10231e-06
6.10246e-06
6.10264e-06
6.1029e-06
6.10327e-06
6.10376e-06
6.1044e-06
6.10522e-06
6.10609e-06
6.10759e-06
6.10745e-06
6.11464e-06
6.09742e-06
6.15214e-06
6.07657e-06
5.87469e-06
8.49976e-06
1.69383e-06
6.10255e-06
6.10244e-06
6.10164e-06
6.10041e-06
6.10049e-06
6.10054e-06
6.10027e-06
6.09985e-06
6.09948e-06
6.0992e-06
6.09902e-06
6.09885e-06
6.09872e-06
6.09864e-06
6.09861e-06
6.09863e-06
6.09869e-06
6.09879e-06
6.09893e-06
6.09911e-06
6.09932e-06
6.09958e-06
6.09986e-06
6.10017e-06
6.10047e-06
6.10076e-06
6.10104e-06
6.1013e-06
6.10153e-06
6.10174e-06
6.10192e-06
6.10205e-06
6.10215e-06
6.10218e-06
6.10222e-06
6.10231e-06
6.10246e-06
6.1033e-06
6.10328e-06
6.10183e-06
6.10134e-06
6.10091e-06
6.10078e-06
6.10073e-06
6.10076e-06
6.10088e-06
6.10101e-06
6.10115e-06
6.1013e-06
6.10143e-06
6.10155e-06
6.10166e-06
6.10177e-06
6.10185e-06
6.10193e-06
6.102e-06
6.10207e-06
6.10214e-06
6.10222e-06
6.10231e-06
6.10242e-06
6.10255e-06
6.10271e-06
6.10293e-06
6.10324e-06
6.10366e-06
6.10421e-06
6.10491e-06
6.1057e-06
6.10688e-06
6.10754e-06
6.11044e-06
6.11007e-06
6.10394e-06
6.19474e-06
5.7322e-06
7.57929e-06
4.60553e-06
6.10228e-06
6.10225e-06
6.10152e-06
6.10035e-06
6.10035e-06
6.10036e-06
6.10009e-06
6.09968e-06
6.09933e-06
6.09906e-06
6.09886e-06
6.09869e-06
6.09857e-06
6.0985e-06
6.09848e-06
6.0985e-06
6.09856e-06
6.09865e-06
6.09877e-06
6.09894e-06
6.09913e-06
6.09937e-06
6.09964e-06
6.09993e-06
6.10023e-06
6.10052e-06
6.1008e-06
6.10107e-06
6.10132e-06
6.10155e-06
6.10176e-06
6.10193e-06
6.10206e-06
6.10215e-06
6.10216e-06
6.10221e-06
6.10231e-06
6.10304e-06
6.10303e-06
6.1016e-06
6.10114e-06
6.10074e-06
6.10068e-06
6.10068e-06
6.10074e-06
6.10088e-06
6.10104e-06
6.10119e-06
6.10135e-06
6.10149e-06
6.10162e-06
6.10174e-06
6.10185e-06
6.10195e-06
6.10204e-06
6.10212e-06
6.10219e-06
6.10227e-06
6.10235e-06
6.10243e-06
6.10254e-06
6.10266e-06
6.1028e-06
6.10299e-06
6.10326e-06
6.10362e-06
6.1041e-06
6.1047e-06
6.10543e-06
6.10634e-06
6.10746e-06
6.10811e-06
6.11392e-06
6.0944e-06
6.18543e-06
5.89176e-06
6.61759e-06
6.15368e-06
6.10202e-06
6.10205e-06
6.10139e-06
6.10028e-06
6.10021e-06
6.10018e-06
6.09991e-06
6.09951e-06
6.09917e-06
6.09891e-06
6.0987e-06
6.09853e-06
6.09843e-06
6.09838e-06
6.09835e-06
6.09837e-06
6.09842e-06
6.0985e-06
6.09861e-06
6.09876e-06
6.09894e-06
6.09916e-06
6.09942e-06
6.09971e-06
6.1e-06
6.10028e-06
6.10056e-06
6.10084e-06
6.10111e-06
6.10136e-06
6.10159e-06
6.10179e-06
6.10196e-06
6.10209e-06
6.10216e-06
6.10218e-06
6.10224e-06
6.10285e-06
6.10284e-06
6.10139e-06
6.10096e-06
6.10061e-06
6.1006e-06
6.10065e-06
6.10073e-06
6.10089e-06
6.10106e-06
6.10122e-06
6.1014e-06
6.10155e-06
6.1017e-06
6.10183e-06
6.10195e-06
6.10205e-06
6.10215e-06
6.10224e-06
6.10233e-06
6.10241e-06
6.10249e-06
6.10258e-06
6.10268e-06
6.10279e-06
6.10292e-06
6.10309e-06
6.10332e-06
6.10363e-06
6.10405e-06
6.10457e-06
6.10523e-06
6.10599e-06
6.10716e-06
6.10737e-06
6.11265e-06
6.10032e-06
6.14609e-06
6.04424e-06
6.17191e-06
6.41721e-06
6.10178e-06
6.10185e-06
6.10125e-06
6.10019e-06
6.10007e-06
6.1e-06
6.09972e-06
6.09933e-06
6.099e-06
6.09875e-06
6.09854e-06
6.09839e-06
6.09829e-06
6.09824e-06
6.09822e-06
6.09824e-06
6.09828e-06
6.09835e-06
6.09845e-06
6.09859e-06
6.09876e-06
6.09896e-06
6.09921e-06
6.09948e-06
6.09977e-06
6.10004e-06
6.10032e-06
6.1006e-06
6.10088e-06
6.10114e-06
6.10139e-06
6.10162e-06
6.10182e-06
6.10198e-06
6.1021e-06
6.10214e-06
6.10218e-06
6.10268e-06
6.10269e-06
6.10119e-06
6.10082e-06
6.10051e-06
6.10055e-06
6.10062e-06
6.10072e-06
6.1009e-06
6.10108e-06
6.10126e-06
6.10145e-06
6.10162e-06
6.10177e-06
6.10191e-06
6.10204e-06
6.10215e-06
6.10226e-06
6.10236e-06
6.10245e-06
6.10254e-06
6.10263e-06
6.10272e-06
6.10282e-06
6.10293e-06
6.10305e-06
6.1032e-06
6.10341e-06
6.10368e-06
6.10405e-06
6.10451e-06
6.10509e-06
6.10577e-06
6.10678e-06
6.10728e-06
6.11035e-06
6.10686e-06
6.11946e-06
6.11382e-06
6.06206e-06
6.28593e-06
6.10155e-06
6.10164e-06
6.10111e-06
6.1001e-06
6.09992e-06
6.09982e-06
6.09953e-06
6.09915e-06
6.09883e-06
6.09858e-06
6.09838e-06
6.09824e-06
6.09815e-06
6.0981e-06
6.09808e-06
6.0981e-06
6.09813e-06
6.0982e-06
6.09829e-06
6.09841e-06
6.09857e-06
6.09876e-06
6.099e-06
6.09926e-06
6.09954e-06
6.0998e-06
6.10008e-06
6.10036e-06
6.10064e-06
6.10091e-06
6.10118e-06
6.10143e-06
6.10165e-06
6.10185e-06
6.10199e-06
6.10209e-06
6.10211e-06
6.10252e-06
6.10256e-06
6.10101e-06
6.10068e-06
6.10042e-06
6.1005e-06
6.10059e-06
6.10072e-06
6.10091e-06
6.10111e-06
6.1013e-06
6.1015e-06
6.10168e-06
6.10184e-06
6.10199e-06
6.10213e-06
6.10226e-06
6.10237e-06
6.10248e-06
6.10258e-06
6.10268e-06
6.10278e-06
6.10287e-06
6.10298e-06
6.10308e-06
6.1032e-06
6.10334e-06
6.10353e-06
6.10377e-06
6.10409e-06
6.10449e-06
6.10501e-06
6.10563e-06
6.10647e-06
6.10725e-06
6.10876e-06
6.10984e-06
6.10951e-06
6.12726e-06
6.0741e-06
6.16515e-06
6.10133e-06
6.10144e-06
6.10095e-06
6.09999e-06
6.09978e-06
6.09964e-06
6.09934e-06
6.09896e-06
6.09865e-06
6.09841e-06
6.09822e-06
6.09809e-06
6.098e-06
6.09795e-06
6.09794e-06
6.09795e-06
6.09798e-06
6.09804e-06
6.09812e-06
6.09824e-06
6.09838e-06
6.09857e-06
6.09879e-06
6.09904e-06
6.0993e-06
6.09956e-06
6.09983e-06
6.1001e-06
6.10039e-06
6.10067e-06
6.10095e-06
6.10121e-06
6.10146e-06
6.10168e-06
6.10186e-06
6.102e-06
6.10201e-06
6.10233e-06
6.10242e-06
6.10085e-06
6.10055e-06
6.10034e-06
6.10045e-06
6.10057e-06
6.10071e-06
6.10093e-06
6.10114e-06
6.10134e-06
6.10155e-06
6.10174e-06
6.10191e-06
6.10208e-06
6.10222e-06
6.10236e-06
6.10249e-06
6.1026e-06
6.10272e-06
6.10282e-06
6.10293e-06
6.10303e-06
6.10314e-06
6.10325e-06
6.10336e-06
6.1035e-06
6.10367e-06
6.10388e-06
6.10417e-06
6.10453e-06
6.10499e-06
6.10555e-06
6.10626e-06
6.10713e-06
6.10803e-06
6.11017e-06
6.10825e-06
6.12153e-06
6.10054e-06
6.1178e-06
6.10112e-06
6.10124e-06
6.10078e-06
6.09988e-06
6.09962e-06
6.09945e-06
6.09915e-06
6.09877e-06
6.09846e-06
6.09824e-06
6.09805e-06
6.09792e-06
6.09784e-06
6.0978e-06
6.09778e-06
6.09779e-06
6.09783e-06
6.09788e-06
6.09796e-06
6.09807e-06
6.0982e-06
6.09837e-06
6.09858e-06
6.09882e-06
6.09907e-06
6.09932e-06
6.09958e-06
6.09985e-06
6.10013e-06
6.10042e-06
6.10071e-06
6.10099e-06
6.10125e-06
6.1015e-06
6.10171e-06
6.10189e-06
6.1019e-06
6.10214e-06
6.10226e-06
6.10069e-06
6.10043e-06
6.10027e-06
6.1004e-06
6.10054e-06
6.10071e-06
6.10094e-06
6.10116e-06
6.10138e-06
6.1016e-06
6.1018e-06
6.10198e-06
6.10216e-06
6.10232e-06
6.10246e-06
6.1026e-06
6.10273e-06
6.10285e-06
6.10296e-06
6.10308e-06
6.10319e-06
6.1033e-06
6.10342e-06
6.10354e-06
6.10367e-06
6.10383e-06
6.10403e-06
6.10428e-06
6.1046e-06
6.10501e-06
6.10552e-06
6.10615e-06
6.10697e-06
6.10775e-06
6.10956e-06
6.10918e-06
6.11513e-06
6.11324e-06
6.11089e-06
6.10092e-06
6.10103e-06
6.10061e-06
6.09975e-06
6.09946e-06
6.09926e-06
6.09894e-06
6.09857e-06
6.09827e-06
6.09805e-06
6.09787e-06
6.09775e-06
6.09768e-06
6.09764e-06
6.09762e-06
6.09763e-06
6.09766e-06
6.09772e-06
6.09779e-06
6.09789e-06
6.09801e-06
6.09817e-06
6.09837e-06
6.09859e-06
6.09883e-06
6.09907e-06
6.09932e-06
6.09959e-06
6.09987e-06
6.10016e-06
6.10045e-06
6.10074e-06
6.10102e-06
6.10129e-06
6.10153e-06
6.10173e-06
6.10181e-06
6.10198e-06
6.10213e-06
6.10054e-06
6.10032e-06
6.10019e-06
6.10036e-06
6.10052e-06
6.10071e-06
6.10095e-06
6.10119e-06
6.10142e-06
6.10165e-06
6.10186e-06
6.10206e-06
6.10224e-06
6.1024e-06
6.10256e-06
6.10271e-06
6.10284e-06
6.10298e-06
6.1031e-06
6.10322e-06
6.10334e-06
6.10346e-06
6.10359e-06
6.10371e-06
6.10384e-06
6.10399e-06
6.10418e-06
6.10442e-06
6.10471e-06
6.10508e-06
6.10554e-06
6.10611e-06
6.10685e-06
6.10763e-06
6.10896e-06
6.10979e-06
6.11208e-06
6.11532e-06
6.11434e-06
6.10072e-06
6.10084e-06
6.10044e-06
6.09961e-06
6.09929e-06
6.09906e-06
6.09874e-06
6.09837e-06
6.09807e-06
6.09785e-06
6.09768e-06
6.09757e-06
6.0975e-06
6.09746e-06
6.09745e-06
6.09746e-06
6.09749e-06
6.09754e-06
6.09761e-06
6.0977e-06
6.09782e-06
6.09797e-06
6.09815e-06
6.09836e-06
6.09859e-06
6.09882e-06
6.09906e-06
6.09932e-06
6.0996e-06
6.09988e-06
6.10018e-06
6.10048e-06
6.10077e-06
6.10106e-06
6.10131e-06
6.10154e-06
6.10169e-06
6.1018e-06
6.102e-06
6.10039e-06
6.10021e-06
6.10012e-06
6.10031e-06
6.10049e-06
6.1007e-06
6.10096e-06
6.10121e-06
6.10146e-06
6.1017e-06
6.10191e-06
6.10212e-06
6.10231e-06
6.10249e-06
6.10266e-06
6.10281e-06
6.10296e-06
6.1031e-06
6.10324e-06
6.10337e-06
6.1035e-06
6.10363e-06
6.10376e-06
6.10389e-06
6.10402e-06
6.10417e-06
6.10435e-06
6.10456e-06
6.10483e-06
6.10517e-06
6.1056e-06
6.10611e-06
6.10677e-06
6.10754e-06
6.10859e-06
6.10979e-06
6.11123e-06
6.11391e-06
6.11669e-06
6.10054e-06
6.10064e-06
6.10026e-06
6.09947e-06
6.09911e-06
6.09886e-06
6.09852e-06
6.09815e-06
6.09786e-06
6.09765e-06
6.09749e-06
6.09738e-06
6.09731e-06
6.09728e-06
6.09727e-06
6.09728e-06
6.09731e-06
6.09736e-06
6.09742e-06
6.09751e-06
6.09762e-06
6.09775e-06
6.09793e-06
6.09813e-06
6.09834e-06
6.09856e-06
6.0988e-06
6.09905e-06
6.09932e-06
6.0996e-06
6.0999e-06
6.1002e-06
6.1005e-06
6.1008e-06
6.10108e-06
6.10133e-06
6.10154e-06
6.1016e-06
6.10185e-06
6.10025e-06
6.1001e-06
6.10005e-06
6.10026e-06
6.10046e-06
6.10069e-06
6.10097e-06
6.10123e-06
6.10149e-06
6.10174e-06
6.10197e-06
6.10219e-06
6.10239e-06
6.10258e-06
6.10275e-06
6.10292e-06
6.10308e-06
6.10323e-06
6.10337e-06
6.10352e-06
6.10366e-06
6.10379e-06
6.10393e-06
6.10407e-06
6.10421e-06
6.10435e-06
6.10452e-06
6.10473e-06
6.10498e-06
6.10529e-06
6.10568e-06
6.10616e-06
6.10675e-06
6.10748e-06
6.10841e-06
6.10955e-06
6.11106e-06
6.11249e-06
6.1168e-06
6.10036e-06
6.10044e-06
6.10007e-06
6.09931e-06
6.09893e-06
6.09864e-06
6.0983e-06
6.09793e-06
6.09764e-06
6.09744e-06
6.09728e-06
6.09718e-06
6.09712e-06
6.09709e-06
6.09708e-06
6.09709e-06
6.09712e-06
6.09716e-06
6.09722e-06
6.0973e-06
6.0974e-06
6.09753e-06
6.09769e-06
6.09788e-06
6.09808e-06
6.09829e-06
6.09852e-06
6.09876e-06
6.09902e-06
6.0993e-06
6.0996e-06
6.09991e-06
6.10022e-06
6.10053e-06
6.10083e-06
6.1011e-06
6.10135e-06
6.10142e-06
6.10172e-06
6.1001e-06
6.09999e-06
6.09997e-06
6.10021e-06
6.10044e-06
6.10068e-06
6.10097e-06
6.10125e-06
6.10152e-06
6.10178e-06
6.10202e-06
6.10225e-06
6.10246e-06
6.10266e-06
6.10284e-06
6.10302e-06
6.10319e-06
6.10335e-06
6.10351e-06
6.10366e-06
6.10381e-06
6.10396e-06
6.10411e-06
6.10425e-06
6.1044e-06
6.10455e-06
6.10471e-06
6.10491e-06
6.10515e-06
6.10543e-06
6.10579e-06
6.10623e-06
6.10678e-06
6.10745e-06
6.10832e-06
6.10931e-06
6.11094e-06
6.11173e-06
6.11601e-06
6.10018e-06
6.10025e-06
6.09988e-06
6.09914e-06
6.09873e-06
6.09842e-06
6.09807e-06
6.0977e-06
6.09742e-06
6.09722e-06
6.09706e-06
6.09697e-06
6.09691e-06
6.09688e-06
6.09687e-06
6.09688e-06
6.09691e-06
6.09695e-06
6.09701e-06
6.09708e-06
6.09718e-06
6.0973e-06
6.09745e-06
6.09762e-06
6.09781e-06
6.09801e-06
6.09823e-06
6.09846e-06
6.09872e-06
6.09899e-06
6.09928e-06
6.09959e-06
6.0999e-06
6.10022e-06
6.10054e-06
6.10083e-06
6.10111e-06
6.10123e-06
6.10159e-06
6.09996e-06
6.09988e-06
6.0999e-06
6.10016e-06
6.1004e-06
6.10067e-06
6.10097e-06
6.10127e-06
6.10155e-06
6.10182e-06
6.10207e-06
6.10231e-06
6.10253e-06
6.10274e-06
6.10293e-06
6.10312e-06
6.1033e-06
6.10347e-06
6.10364e-06
6.10381e-06
6.10397e-06
6.10412e-06
6.10428e-06
6.10443e-06
6.10458e-06
6.10474e-06
6.1049e-06
6.1051e-06
6.10532e-06
6.1056e-06
6.10593e-06
6.10634e-06
6.10684e-06
6.10746e-06
6.10827e-06
6.10916e-06
6.11076e-06
6.11137e-06
6.11521e-06
6.1e-06
6.10005e-06
6.09969e-06
6.09896e-06
6.09853e-06
6.0982e-06
6.09783e-06
6.09746e-06
6.09718e-06
6.09698e-06
6.09684e-06
6.09674e-06
6.09668e-06
6.09666e-06
6.09665e-06
6.09666e-06
6.09669e-06
6.09673e-06
6.09678e-06
6.09685e-06
6.09693e-06
6.09704e-06
6.09719e-06
6.09735e-06
6.09753e-06
6.09772e-06
6.09792e-06
6.09814e-06
6.09839e-06
6.09865e-06
6.09894e-06
6.09925e-06
6.09956e-06