/*--------------------------------*- C++ -*----------------------------------*\
| =========                 |                                                 |
| \\      /  F ield         | OpenFOAM: The Open Source CFD Toolbox           |
|  \\    /   O peration     | Version:  2312                                  |
|   \\  /    A nd           | Website:  www.openfoam.com                      |
|    \\/     M anipulation  |                                                 |
\*---------------------------------------------------------------------------*/
FoamFile
{
    version     2.0;
    format      ascii;
    arch        "LSB;label=32;scalar=64";
    class       volScalarField;
    location    "400";
    object      p;
}
// * * * * * * * * * * * * * * * * * * * * * * * * * * * * * * * * * * * * * //

dimensions      [0 2 -2 0 0 0 0];

internalField   nonuniform List<scalar> 
10720
(
-62.2761
-133.563
-217.411
-300.049
-376.409
-454.197
-523.213
-581.156
-631.493
-670.88
-700.868
-722.954
-738.263
-747.523
-750.911
-747.777
-739.029
-723.617
-702.965
-677.136
-649.49
-623.081
-600.476
-573.518
-533.283
-482.207
-429.83
-384.231
-344.986
-308.069
-271.578
-235.416
-199.629
-163.847
-127.667
-90.0549
-51.5541
-6.9188
26.0036
9.09126
74.1327
143.47
208.205
263.523
305.439
330.179
338.464
336.064
323.159
302.13
278.586
255.04
232.257
210.876
190.764
171.975
154.078
136.804
119.66
102.596
85.3009
67.8676
50.708
35.6899
23.854
14.1395
6.25828
0.395182
-3.48443
-5.62885
-6.1863
-5.23946
-2.79459
1.15692
6.96871
15.2151
29.1385
52.8283
43.2086
-10.9459
-71.6182
-136.057
-202.276
-270.052
-335.831
-397.535
-454.482
-504.913
-548.62
-585.609
-615.786
-639.147
-655.513
-664.578
-667.097
-662.952
-653.195
-638.373
-621.134
-603.837
-587.566
-565.161
-528.413
-479.367
-428.22
-383.16
-344.103
-307.265
-270.802
-234.678
-198.963
-163.276
-127.202
-89.6871
-51.2653
-6.61444
25.694
91.9389
138.39
184.724
229.416
268.801
300.267
320.676
329.369
327.941
317.251
300.068
279.871
258.609
237.222
216.417
196.444
177.43
159.196
141.542
124.14
106.891
89.5894
72.3165
55.4977
40.6056
28.5673
18.6999
10.5892
4.19911
-0.370173
-3.13153
-4.1795
-3.6176
-1.47863
2.23608
7.87096
15.9846
29.8294
52.5883
56.9872
8.33061
-46.4557
-106.946
-169.663
-233.945
-298.227
-359.849
-417.229
-469.367
-515.013
-553.611
-584.856
-608.939
-626.094
-636.737
-640.898
-638.64
-630.61
-617.53
-601.263
-583.838
-566.416
-544.536
-511.363
-467.263
-420.365
-377.832
-340.184
-304.372
-268.757
-233.279
-197.985
-162.549
-126.643
-89.2616
-50.9451
-6.36487
25.8162
100.894
143.551
185.978
226.146
260.847
288.458
306.875
315.793
315.951
308.013
294.06
276.444
256.946
236.734
216.618
197.035
178.184
160.03
142.429
125.14
108.027
90.9525
73.9776
57.4852
42.638
30.3394
20.2184
11.92
5.43017
0.836344
-1.92488
-3.0114
-2.54112
-0.528326
3.05764
8.57902
16.6044
30.3148
52.192
79.5948
38.8064
-7.7897
-59.0323
-112.831
-169.117
-226.225
-282.396
-336.305
-386.797
-432.749
-473.432
-508.382
-537.449
-560.507
-577.681
-588.52
-592.98
-591.374
-584.317
-573.096
-559.259
-543.641
-523.379
-493.544
-454.082
-411.207
-371.127
-334.896
-300.2
-265.573
-230.922
-196.302
-161.406
-125.891
-88.7814
-50.6461
-6.26556
26.0221
116.129
151.216
186.409
220.362
250.08
274.3
291.207
300.32
301.883
296.36
285.347
270.587
253.541
235.309
216.679
198.137
179.954
162.218
144.871
127.769
110.811
93.9226
77.1751
60.9275
46.1392
33.6601
23.3227
14.8038
8.05969
3.15203
0.0247137
-1.42668
-1.27804
0.475851
3.86976
9.25531
17.1819
30.7192
51.7476
85.7203
49.4043
7.72228
-38.45
-87.059
-138.516
-191.446
-244.24
-295.887
-345.228
-391.118
-432.747
-469.435
-500.685
-526.197
-545.659
-558.823
-565.692
-566.505
-561.884
-552.845
-540.678
-526.026
-506.852
-479.344
-443.15
-403.155
-364.862
-329.682
-295.863
-262.078
-228.184
-194.222
-159.894
-124.87
-88.1822
-50.3551
-6.30759
26.0859
118.33
149.48
180.809
211.03
237.501
259.35
275.182
284.416
287.082
283.599
275.12
262.958
248.257
231.977
214.87
197.442
180.031
162.814
145.825
129.008
112.304
95.6855
79.2362
63.2879
48.6325
36.0435
25.5125
16.7825
9.81491
4.67748
1.34362
-0.272279
-0.252154
1.39368
4.69319
9.99187
17.8264
31.1544
51.2945
89.512
57.3599
20.263
-20.7981
-64.0385
-110.159
-157.877
-205.914
-253.53
-299.667
-343.357
-383.831
-420.352
-452.323
-479.318
-500.959
-517.127
-527.627
-532.464
-532.002
-526.916
-518.1
-505.958
-489.017
-464.368
-431.587
-394.628
-358.37
-324.446
-291.578
-258.611
-225.422
-192.08
-158.305
-123.768
-87.5301
-50.0933
-6.52095
25.9715
118.385
145.862
173.697
200.747
224.57
244.522
259.472
268.741
272.236
270.374
263.999
254.125
241.647
227.364
211.951
195.886
179.523
163.091
146.691
130.336
114.02
97.7568
81.6481
66.0089
51.5144
38.8677
28.181
19.2744
12.1144
6.76522
3.21273
1.37356
1.1707
2.6008
5.70582
10.8361
18.5155
31.5746
50.8018
89.4314
60.4138
26.8453
-10.3441
-49.4302
-91.3465
-134.957
-179.14
-223.401
-266.804
-308.507
-347.825
-384.009
-416.412
-444.515
-467.866
-486.057
-498.823
-506.014
-507.91
-505.054
-498.15
-487.518
-472.151
-449.871
-420.174
-386.118
-351.903
-319.271
-287.373
-255.233
-222.734
-189.964
-156.698
-122.651
-86.9002
-49.9241
-6.94301
25.6526
115.516
140.261
165.456
190.043
211.779
230.21
244.408
253.628
257.737
257.143
252.491
244.574
234.096
221.701
207.967
193.32
178.098
162.559
146.851
131.047
115.189
99.3338
83.6015
68.2941
53.9975
41.3503
30.5491
21.4891
14.1477
8.5884
4.8117
2.75266
2.34618
3.59771
6.55373
11.5582
19.112
31.8974
50.2347
87.7514
61.4119
30.8781
-2.91922
-38.3444
-76.456
-116.207
-156.623
-197.379
-237.676
-276.79
-314.148
-349.06
-380.89
-409.079
-433.116
-452.54
-467.111
-476.626
-481.151
-480.985
-476.558
-468.031
-454.674
-434.889
-408.213
-377.02
-344.91
-313.677
-282.848
-251.627
-219.903
-187.774
-155.049
-121.494
-86.2529
-49.829
-7.55768
25.0775
111.465
133.911
156.893
179.43
199.432
216.602
230.124
239.226
243.784
244.171
240.906
234.633
225.911
215.255
203.144
189.936
175.942
161.417
146.533
131.404
116.113
100.749
85.4541
70.5174
56.4641
43.8771
33.0102
23.8308
16.3344
10.5868
6.60443
4.33827
3.73132
4.79286
7.57556
12.4186
19.8022
32.2464
49.6656
84.8556
60.7373
32.7457
1.78538
-30.5644
-65.4265
-101.855
-138.969
-176.588
-214.018
-250.651
-286.027
-319.522
-350.542
-378.536
-402.967
-423.341
-439.291
-450.532
-456.957
-458.733
-456.154
-449.31
-437.682
-420.105
-396.156
-367.645
-337.609
-307.816
-278.096
-247.827
-216.917
-185.47
-153.33
-120.294
-85.5712
-49.7457
-8.27026
24.2272
106.601
127.153
148.298
169.117
187.655
203.756
216.661
225.598
230.47
231.611
229.46
224.553
217.344
208.247
197.652
185.847
173.101
159.649
145.668
131.294
116.644
101.833
87.0184
72.4846
58.7109
46.234
35.3448
26.0755
18.4446
12.5227
8.34083
5.86727
5.05693
5.92697
8.53697
13.2193
20.4287
32.5135
49.0369
81.3077
59.0961
33.299
4.80116
-24.8798
-56.8918
-90.3549
-124.475
-159.173
-193.838
-227.974
-261.213
-293.003
-322.825
-350.15
-374.441
-395.188
-411.986
-424.528
-432.602
-436.213
-435.49
-430.421
-420.607
-405.2
-383.843
-357.917
-329.962
-301.666
-273.104
-243.828
-213.767
-183.036
-151.516
-119.037
-84.8591
-49.6456
-9.02308
23.1512
101.369
120.305
139.881
159.228
176.509
191.676
204.014
212.753
217.831
219.549
218.288
214.505
208.587
200.865
191.655
181.184
169.671
157.322
144.303
130.758
116.821
102.628
88.3476
74.259
60.8089
48.4973
37.6371
28.316
20.5795
14.5056
10.1402
7.47015
6.46193
7.13913
9.56871
14.0741
21.0833
32.7615
48.3778
77.3745
56.8087
32.9131
6.55081
-20.81
-50.3301
-81.183
-112.646
-144.699
-176.813
-208.585
-239.732
-269.771
-298.248
-324.688
-348.577
-369.409
-386.75
-400.238
-409.583
-414.647
-415.457
-411.944
-403.793
-390.383
-371.415
-347.929
-322.017
-295.249
-267.886
-239.636
-210.458
-180.479
-149.611
-117.722
-84.1251
-49.5243
-9.82524
21.9154
95.9811
113.528
131.747
149.818
166.003
180.341
192.148
200.671
205.871
208.026
207.471
204.614
199.785
193.261
185.296
176.067
165.742
154.492
142.463
129.794
116.625
103.103
89.4023
75.7962
62.7096
50.612
39.8281
30.4915
22.6763
16.4707
11.9353
9.07536
7.87168
8.35519
10.6009
14.9216
21.7163
32.9614
47.6832
73.2595
54.1365
31.9118
7.42793
-17.896
-45.2145
-73.7448
-102.82
-132.472
-162.23
-191.766
-220.866
-249.118
-276.139
-301.5
-324.725
-345.331
-362.872
-376.958
-387.273
-393.552
-395.73
-393.677
-387.121
-375.599
-358.863
-337.687
-313.778
-288.564
-262.439
-235.252
-206.994
-177.8
-147.619
-116.354
-83.3779
-49.4004
-10.6925
20.5463
90.5953
106.93
123.96
140.903
156.125
169.714
181.02
189.316
194.572
197.053
197.061
194.961
191.049
185.558
178.7
170.605
161.403
151.224
140.19
128.425
116.066
103.261
90.1829
77.0986
64.4161
52.5813
41.9229
32.611
24.7485
18.436
13.7487
10.7108
9.31799
9.6082
11.6648
15.7883
22.3473
33.1257
46.9581
69.0923
51.2422
30.4984
7.67824
-15.8442
-41.2075
-67.6681
-94.602
-122.08
-149.687
-177.14
-204.294
-230.793
-256.319
-280.501
-302.905
-323.078
-340.583
-355.001
-366.007
-373.244
-376.563
-375.798
-370.702
-360.92
-346.243
-327.236
-305.274
-281.625
-256.769
-230.676
-203.372
-174.999
-145.54
-114.933
-82.6169
-49.295
-11.6255
19.0493
85.301
100.571
116.542
132.482
146.845
159.753
170.585
178.646
183.909
186.629
187.082
185.601
182.456
177.853
171.967
164.898
156.738
147.584
137.53
126.678
115.154
103.099
90.6792
78.1531
65.913
54.3857
43.8997
34.6527
26.7746
20.3804
15.5599
12.3557
10.78
10.8779
12.7415
16.658
22.9642
33.2501
46.205
64.959
48.243
28.823
7.48936
-14.4263
-38.0422
-62.6492
-87.6555
-113.167
-138.803
-164.328
-189.642
-214.446
-238.476
-261.418
-282.887
-302.456
-319.713
-334.229
-345.676
-353.65
-357.923
-358.297
-354.539
-346.364
-333.587
-316.611
-296.527
-274.442
-250.88
-225.909
-199.59
-172.073
-143.371
-113.457
-81.8387
-49.2153
-12.6214
17.4392
80.1613
94.4805
109.509
124.542
138.134
150.414
160.796
168.62
173.852
176.744
177.546
176.57
174.066
170.22
165.184
159.031
151.827
143.64
134.533
124.587
113.908
102.624
90.892
78.9561
67.1942
56.0169
45.7488
36.6076
28.7478
22.2994
17.3668
14.0109
12.2606
12.1685
13.8358
17.5345
23.5693
33.3385
45.4277
60.9154
45.2195
26.9905
6.99478
-13.48
-35.5265
-58.4625
-81.7318
-105.457
-129.29
-153.033
-176.626
-199.815
-222.386
-244.069
-264.529
-283.38
-300.231
-314.665
-326.345
-334.853
-339.893
-341.247
-338.687
-331.975
-320.938
-305.852
-287.569
-267.034
-244.781
-220.955
-195.648
-169.02
-141.11
-111.925
-81.042
-49.1567
-13.6776
15.7286
75.2131
88.6775
102.852
117.067
129.955
141.654
151.61
159.194
164.368
167.375
168.452
167.886
165.918
162.717
158.419
153.08
146.743
139.454
131.25
122.186
112.349
101.848
90.8244
79.5049
68.2525
57.464
47.4568
38.462
30.6548
24.1808
19.1586
15.6666
13.7511
13.4726
14.9406
18.412
24.1586
33.3912
44.6302
56.9985
42.2276
25.0773
6.29333
-12.8818
-33.5083
-54.9323
-76.6281
-98.728
-120.912
-143.017
-165.006
-186.666
-207.825
-228.259
-247.673
-265.723
-282.048
-296.249
-307.982
-316.848
-322.491
-324.672
-323.173
-317.782
-308.333
-294.998
-278.43
-259.418
-238.48
-215.817
-191.549
-165.842
-138.758
-110.337
-80.2262
-49.1162
-14.7874
13.9236
70.4773
83.1682
96.566
110.033
122.275
133.435
142.987
150.33
155.424
158.504
159.794
159.562
158.04
155.388
151.727
147.105
141.55
135.086
127.73
119.515
110.504
100.786
90.4821
79.7998
69.0852
58.7201
49.0137
40.2046
32.4849
26.0149
20.9272
17.3168
15.2472
14.7868
16.0538
19.2886
24.7309
33.4106
43.8163
53.2333
39.304
23.1364
5.45739
-12.5389
-31.8743
-51.9261
-72.1902
-92.8086
-113.487
-134.082
-154.579
-174.802
-194.61
-213.822
-232.181
-249.381
-265.095
-278.945
-290.588
-299.654
-305.746
-308.611
-308.035
-303.822
-295.811
-284.089
-269.143
-251.617
-231.993
-210.504
-187.296
-162.537
-136.313
-108.692
-79.3911
-49.0912
-15.9428
12.0306
65.9644
77.952
90.6382
103.418
115.064
125.718
134.887
141.991
146.987
150.108
151.56
151.598
150.449
148.262
145.152
141.159
136.303
130.591
124.024
116.615
108.403
99.4583
89.8771
79.8455
69.6905
59.7791
50.41
41.8242
34.2268
27.7911
22.6629
18.953
16.7417
16.1056
17.1703
20.1606
25.2841
33.3988
42.99
49.6337
36.4747
21.2101
4.53983
-12.3783
-30.538
-49.3358
-68.2948
-87.5589
-106.856
-126.059
-145.176
-164.053
-182.582
-200.612
-217.923
-234.248
-249.288
-262.698
-274.136
-283.265
-289.672
-293.086
-293.299
-290.128
-283.411
-273.167
-259.744
-243.656
-225.333
-205.025
-182.893
-159.109
-133.776
-106.991
-78.5352
-49.0812
-17.1347
10.0608
61.6785
73.0214
85.0523
97.1973
108.291
118.471
127.274
134.141
139.029
142.163
143.737
143.995
143.155
141.363
138.727
135.285
131.049
126.017
120.177
113.524
106.079
97.8875
89.0239
79.6493
70.0703
60.6378
51.6381
43.311
35.8696
29.4989
24.3563
20.5672
18.2277
17.4235
18.286
21.0247
25.8164
33.3583
42.1564
46.2068
33.7576
19.3231
3.58307
-12.3489
-29.4288
-47.0788
-64.8411
-82.8657
-100.894
-118.816
-136.653
-154.275
-171.594
-188.492
-204.778
-220.22
-234.55
-247.452
-258.599
-267.675
-274.277
-278.118
-278.992
-276.73
-271.168
-262.27
-250.269
-235.562
-218.519
-199.391
-178.347
-155.561
-131.149
-105.231
-77.6574
-49.0841
-18.3546
8.02615
57.6189
68.3674
79.7921
91.3488
101.925
111.66
120.113
126.749
131.52
134.644
136.309
136.744
136.162
134.705
132.478
129.516
125.829
121.408
116.233
110.284
103.564
96.0981
87.9383
79.2208
70.2291
61.2953
52.6927
44.6563
37.4035
31.1278
25.9974
22.1505
19.6978
18.7343
19.3957
21.8774
26.3263
33.2917
41.3197
42.9561
31.1634
17.4966
2.61505
-12.4077
-28.4951
-45.0883
-61.753
-78.6379
-95.4988
-112.238
-128.89
-145.339
-161.521
-177.341
-192.635
-207.202
-220.804
-233.152
-243.94
-252.868
-259.563
-263.72
-265.136
-263.656
-259.116
-251.435
-240.754
-227.363
-211.571
-193.615
-173.666
-151.896
-128.432
-103.415
-76.7557
-49.097
-19.5936
5.9396
53.7814
63.9802
74.8419
85.8506
95.9418
105.254
113.376
119.783
124.431
127.532
129.261
129.837
129.47
128.298
126.423
123.879
120.676
116.802
112.229
106.93
100.89
94.1171
86.6412
78.5739
70.1734
61.7525
53.5699
45.8528
38.819
32.668
27.5764
23.6937
21.144
20.0313
20.4942
22.7149
26.8124
33.2016
40.4845
39.881
28.698
15.7445
1.65909
-12.5241
-27.694
-43.3132
-58.966
-74.8004
-90.585
-106.234
-121.787
-137.146
-152.262
-167.059
-181.4
-195.109
-207.977
-219.74
-230.12
-238.826
-245.525
-249.896
-251.747
-250.931
-247.288
-240.701
-231.235
-219.09
-204.512
-187.713
-168.86
-148.121
-125.629
-101.541
-75.828
-49.1158
-20.8424
3.8155
50.1616
59.8485
70.1849
80.6809
90.3168
99.2308
107.034
113.22
117.741
120.803
122.575
123.265
123.077
122.147
120.574
118.394
115.617
112.23
108.202
103.496
98.0892
91.9719
85.1544
77.7234
69.912
62.0128
54.2682
46.8949
40.1082
34.11
29.0835
25.1878
22.558
21.3075
21.5758
23.5334
27.2733
33.0909
39.6553
36.9795
26.3645
14.075
0.730933
-12.6731
-26.9932
-41.7103
-56.4284
-71.2908
-86.0816
-100.721
-115.258
-129.602
-143.72
-157.554
-170.983
-183.86
-195.999
-207.163
-217.096
-225.524
-232.15
-236.652
-238.837
-238.577
-235.712
-230.102
-221.748
-210.773
-197.364
-181.701
-163.94
-144.241
-122.741
-99.6103
-74.8723
-49.1358
-22.0907
1.66875
46.7513
55.9606
65.805
75.8198
85.0267
93.5635
101.062
107.031
111.423
114.438
116.236
117.016
116.978
116.253
114.94
113.077
110.675
107.72
104.18
100.015
95.1924
89.6895
83.4994
76.6856
69.4564
62.0821
54.788
47.779
41.2641
35.4452
30.5095
26.6234
23.9315
22.5555
22.6348
24.329
27.7077
32.962
38.8367
34.2475
24.1629
12.4946
-0.157274
-12.8379
-26.3666
-40.2469
-54.0982
-68.0619
-81.9312
-95.6369
-109.229
-122.63
-135.815
-148.741
-161.306
-173.382
-184.805
-195.365
-204.828
-212.936
-219.426
-223.982
-226.417
-226.612
-224.415
-219.669
-212.327
-202.445
-190.153
-175.599
-158.921
-140.266
-119.774
-97.6239
-73.8859
-49.1516
-23.3295
-0.48655
43.5423
52.3058
61.6881
71.2491
80.0515
88.2301
95.4372
101.195
105.456
108.417
110.228
111.079
111.164
110.616
109.526
107.939
105.865
103.292
100.189
96.5141
92.2276
87.2966
81.6997
75.4797
68.8198
61.9681
55.1322
48.5028
42.281
36.6657
31.8452
27.9912
25.2558
23.7677
23.6652
25.0978
28.1146
32.8178
38.0328
31.6798
22.0923
11.0061
-0.997621
-13.0029
-25.7944
-38.8956
-51.9418
-65.0703
-78.0867
-90.9258
-103.641
-116.163
-128.477
-140.551
-152.297
-163.606
-174.333
-184.293
-193.272
-201.03
-207.333
-211.88
-214.489
-215.048
-213.419
-209.433
-203.005
-194.138
-182.907
-169.427
-153.814
-136.204
-116.733
-95.5826
-72.8667
-49.1567
-24.548
-2.63487
40.5268
48.8712
57.8192
66.9526
75.372
83.2092
90.1364
95.6891
99.8214
102.722
104.534
105.44
105.629
105.23
104.334
102.987
101.2
98.9656
96.2527
93.0187
89.2208
84.8186
79.7785
74.1247
68.0167
61.6801
55.3045
49.0662
43.1552
37.7647
33.0825
29.2826
26.5222
24.9362
24.6606
25.8357
28.493
32.6604
37.2475
29.2702
20.1503
9.61112
-1.78471
-13.1576
-25.2604
-37.6342
-49.9303
-62.2828
-74.506
-86.54
-98.44
-110.145
-121.646
-132.92
-143.893
-154.471
-164.528
-173.897
-182.387
-189.775
-195.852
-200.337
-203.053
-203.897
-202.744
-199.421
-193.813
-185.88
-175.652
-163.206
-148.638
-132.067
-113.622
-93.4884
-71.8112
-49.145
-25.7357
-4.76129
37.696
45.6465
54.1843
62.9127
70.9689
78.4812
85.1404
90.4951
94.499
97.3346
99.1403
100.089
100.364
100.092
99.3636
98.2247
96.6905
94.7543
92.3878
89.5498
86.1955
82.2789
77.7576
72.6399
67.0624
61.2292
55.3117
49.4707
43.8839
38.7371
34.2139
30.4889
27.7223
26.0534
25.615
26.5388
28.8417
32.4922
36.4842
27.0127
18.3335
8.30918
-2.51511
-13.2949
-24.7527
-36.4462
-48.0423
-59.6712
-71.1556
-82.4412
-93.5823
-104.525
-115.268
-125.793
-136.038
-145.922
-155.336
-164.129
-172.132
-179.14
-184.961
-189.342
-192.108
-193.167
-192.408
-189.657
-184.78
-177.701
-168.413
-156.959
-143.409
-127.865
-110.449
-91.3417
-70.7178
-49.1086
-26.8822
-6.85055
35.0415
42.6202
50.7701
59.1142
66.8258
74.0286
80.4301
85.5935
89.471
92.2397
94.0315
95.0113
95.3588
95.1956
94.6121
93.6548
92.3415
90.6682
88.6094
86.1257
83.1721
79.6991
75.658
71.0439
65.9729
60.6275
55.1612
49.7194
44.4666
39.5783
35.2328
31.6024
28.8481
27.1116
26.5219
27.2031
29.1598
32.3148
35.7461
24.9011
16.6373
7.0994
-3.18664
-13.409
-24.261
-35.3174
-46.2587
-57.2118
-68.0068
-78.5952
-89.03
-99.2638
-109.298
-119.122
-128.682
-137.91
-146.709
-154.946
-162.469
-169.091
-174.636
-178.877
-181.646
-182.86
-182.421
-180.162
-175.932
-169.631
-161.219
-150.709
-138.146
-123.612
-107.221
-89.1468
-69.5832
-49.0407
-27.9785
-8.88741
32.5543
39.7817
47.5642
55.5442
62.9274
69.8353
75.9894
80.9674
84.7208
87.4211
89.1937
90.1963
90.6032
90.5335
90.0757
89.277
88.1576
86.7158
84.9294
82.7617
80.1684
77.0991
73.5001
69.3565
64.7651
59.8881
54.8621
49.8173
44.9038
40.2859
36.1338
32.6161
29.8918
28.1035
27.3754
27.8245
29.4463
32.1297
35.0355
22.9284
15.0578
5.97898
-3.79817
-13.4962
-23.7785
-34.2363
-44.5651
-54.8855
-65.0371
-74.9748
-84.7516
-94.3233
-103.697
-112.864
-121.781
-130.39
-138.604
-146.307
-153.361
-159.597
-164.852
-168.929
-171.66
-172.977
-172.795
-170.952
-167.292
-161.694
-154.095
-144.478
-132.866
-119.322
-103.945
-86.9047
-68.4055
-48.9347
-29.0138
-10.8581
30.2259
37.1209
44.5552
52.1884
59.2591
65.8857
71.8021
76.6008
80.2328
82.8638
84.6134
85.6317
86.0883
86.0987
85.7498
85.0897
84.1401
82.9022
81.3569
79.4702
77.2
74.4963
71.3026
67.5952
63.4547
59.0244
54.4246
49.7704
45.1977
40.8582
36.913
33.5236
30.8463
29.022
28.1697
28.3994
29.7001
31.9382
34.3541
21.088
13.5897
4.94574
-4.35025
-13.5538
-23.2998
-33.1946
-42.9481
-52.6761
-62.2261
-71.5553
-80.7177
-89.6725
-98.4283
-106.982
-115.297
-123.321
-130.981
-138.172
-144.771
-150.627
-155.585
-159.476
-162.141
-163.517
-163.535
-162.044
-158.881
-153.917
-147.066
-138.29
-127.589
-115.007
-100.632
-84.6194
-67.1824
-48.7815
-29.9794
-12.7492
28.0484
34.6279
41.7315
49.0345
55.8071
62.1648
67.8534
72.4787
75.9923
78.5539
80.2773
81.3056
81.8034
81.8829
81.6284
81.0893
80.2888
79.2304
77.8981
76.2611
74.2801
71.906
69.0814
65.7767
62.0575
58.0499
53.8592
49.5862
45.3521
41.2957
37.5671
34.3202
31.7052
29.8606
28.8991
28.9239
29.9201
31.7407
33.7031
19.3734
12.228
3.9966
-4.84401
-13.5805
-22.8199
-32.1847
-41.3973
-50.5695
-59.5556
-68.3164
-76.9045
-85.2829
-93.4623
-101.443
-109.192
-116.668
-123.803
-130.508
-136.669
-142.15
-146.811
-150.503
-153.075
-154.475
-154.645
-153.447
-150.717
-146.32
-140.155
-132.166
-122.333
-110.683
-97.2891
-82.2949
-65.912
-48.5758
-30.8656
-14.5482
26.0136
32.2932
39.0825
46.0711
52.5591
58.6594
64.1294
68.5873
71.9857
74.478
76.1729
77.2067
77.7381
77.8773
77.7053
77.2723
76.6027
75.702
74.5576
73.1422
71.419
69.3411
66.8516
63.9165
60.5888
56.9787
53.1776
49.2728
45.3717
41.5996
38.0949
35.0017
32.4634
30.6134
29.5584
29.3947
30.1051
31.5375
33.0827
17.7782
10.968
3.12791
-5.28074
-13.5755
-22.3367
-31.2016
-39.9053
-48.5552
-57.0129
-65.2412
-73.2922
-81.1321
-88.7725
-96.2165
-103.437
-110.397
-117.039
-123.28
-129.021
-134.14
-138.505
-141.989
-144.45
-145.844
-146.126
-145.169
-142.814
-138.922
-133.384
-126.127
-117.118
-106.365
-93.9276
-79.9347
-64.5935
-48.3106
-31.6652
-16.2444
24.1138
30.1086
36.5983
43.2869
49.5029
55.357
60.6167
64.9138
68.2001
70.624
72.2884
73.3237
73.8831
74.0733
73.9734
73.6332
73.0788
72.3169
71.3383
70.119
68.6254
66.8129
64.6263
62.0289
59.0629
55.824
52.3912
48.8395
45.2627
41.7729
38.496
35.5656
33.1165
31.2756
30.1432
29.8084
30.2538
31.3284
32.4927
16.2959
9.80428
2.33623
-5.66253
-13.5392
-21.848
-30.2409
-38.4654
-46.6244
-54.5855
-62.3152
-69.8632
-77.1994
-84.3358
-91.2785
-98.0038
-104.48
-110.656
-116.459
-121.801
-126.569
-130.645
-133.915
-136.252
-137.617
-137.977
-137.216
-135.184
-131.74
-126.771
-120.194
-111.962
-102.067
-90.5568
-77.544
-63.2265
-47.9803
-32.3707
-17.8281
22.3416
28.0655
34.2695
40.6714
46.6277
52.2458
57.3036
61.4455
64.623
66.9795
68.6125
69.6463
70.2285
70.4625
70.4254
70.1669
69.7133
69.0739
68.2415
67.1955
65.9057
64.3304
62.4168
60.1266
57.4929
54.5988
51.5118
48.2957
45.032
41.8194
38.7716
36.0105
33.6612
31.8429
30.6494
30.1621
30.3648
31.1127
31.9318
14.9204
8.73187
1.61779
-5.99159
-13.4719
-21.3523
-29.299
-37.0713
-44.768
-52.2627
-59.5247
-66.6019
-73.4668
-80.1326
-86.6062
-92.8681
-98.8909
-104.63
-110.02
-114.98
-119.413
-123.206
-126.263
-128.466
-129.785
-130.194
-129.592
-127.836
-124.789
-120.335
-114.385
-106.881
-97.8047
-87.1873
-75.1279
-61.8102
-47.5802
-32.9757
-19.2902
20.6899
26.1556
32.0871
38.2151
43.9227
49.3149
54.1789
58.1708
61.2431
63.5334
65.1341
66.1635
66.7642
67.0364
67.0541
66.8671
66.5024
65.9704
65.2669
64.3741
63.2649
61.9011
60.2326
58.2207
55.8909
53.3149
50.5507
47.6515
44.6873
41.7445
38.924
36.3362
34.0955
32.3123
31.0738
30.4532
30.4369
30.8894
31.3985
13.6456
7.74582
0.968742
-6.27037
-13.3745
-20.8492
-28.3737
-35.7193
-42.9798
-50.0359
-56.8588
-63.4946
-69.9182
-76.1438
-82.1793
-88.0079
-93.6061
-98.9348
-103.935
-108.535
-112.646
-116.168
-119.013
-121.077
-122.336
-122.773
-122.297
-120.776
-118.078
-114.089
-108.715
-101.892
-93.5905
-83.8293
-72.6921
-60.3466
-47.1061
-33.4749
-20.6241
19.1519
24.3713
30.0426
35.9087
41.3784
46.5539
51.2314
55.0791
58.0494
60.2746
61.8425
62.8656
63.4809
63.7858
63.8516
63.7275
63.4408
63.0035
62.4134
61.6557
60.7064
59.5306
58.0813
56.3207
54.2678
51.9841
49.5188
46.9166
44.2368
41.5539
38.9568
36.5439
34.4186
32.6817
31.4136
30.6795
30.4684
30.6571
30.8902
12.466
6.84121
0.385279
-6.50155
-13.2486
-20.3384
-27.4634
-34.4056
-41.2553
-47.8984
-54.3086
-60.5306
-66.5412
-72.3547
-77.9802
-83.4036
-88.6044
-93.5482
-98.1822
-102.443
-106.248
-109.509
-112.147
-114.071
-115.259
-115.705
-115.329
-114.008
-111.617
-108.046
-103.2
-97.0103
-89.4385
-80.4933
-70.2425
-58.8366
-46.5561
-33.8647
-21.8238
17.7208
22.7054
28.128
33.7434
38.9852
43.9529
48.4512
52.1599
55.0314
57.1929
58.728
59.7426
60.3697
60.7028
60.8106
60.7415
60.5235
60.1695
59.679
59.0404
58.2323
57.2233
55.9699
54.4351
52.6332
50.6167
48.427
46.1012
43.6891
41.2545
38.8746
36.6361
34.6311
32.9504
31.6674
30.8393
30.4582
30.4139
30.4041
11.3756
6.01338
-0.136467
-6.68783
-13.0955
-19.82
-26.5663
-33.1273
-39.5893
-45.8433
-51.8658
-57.6994
-63.3228
-68.751
-73.9934
-79.0379
-83.867
-88.4504
-92.7409
-96.6811
-100.198
-103.21
-105.647
-107.43
-108.543
-108.984
-108.685
-107.533
-105.412
-102.215
-97.8519
-92.2482
-85.361
-77.1889
-67.7859
-57.2829
-45.9288
-34.142
-22.8857
16.3907
21.1509
26.3356
31.7113
36.7346
41.5029
45.8287
49.4031
52.1793
54.2787
55.7807
56.7857
57.4217
57.7786
57.9231
57.9024
57.7449
57.4639
57.0612
56.5272
55.8435
54.9821
53.903
52.5709
50.9955
49.222
47.285
45.2149
43.0532
40.8538
38.683
36.6162
34.7345
33.1185
31.8341
30.9314
30.4049
30.158
29.9369
10.3695
5.25768
-0.600253
-6.83209
-12.9171
-19.2948
-25.6823
-31.8826
-37.9783
-43.8658
-49.5232
-54.9923
-60.2528
-65.3202
-70.2043
-74.895
-79.3768
-83.6232
-87.5919
-91.2317
-94.4762
-97.2514
-99.4959
-101.141
-102.174
-102.6
-102.36
-101.351
-99.4663
-96.6056
-92.6804
-87.6173
-81.3688
-73.9258
-65.3282
-55.6886
-45.2236
-34.3055
-23.807
15.1555
19.7012
24.6585
29.8042
34.6182
39.1948
43.3549
46.8002
49.4838
51.5224
52.9915
53.9857
54.6281
55.0055
55.1818
55.2036
55.0989
54.8822
54.5565
54.1144
53.5403
52.8093
51.8849
50.7339
49.3623
47.8086
46.102
44.267
42.3379
40.3595
38.3882
36.4888
34.7316
33.1872
31.9141
30.9552
30.3073
29.8871
29.4849
9.44228
4.56972
-1.00973
-6.93692
-12.7151
-18.7633
-24.8105
-30.6694
-36.4187
-41.9608
-47.2752
-52.4018
-57.3222
-62.0519
-66.6011
-70.9608
-75.1185
-79.0501
-82.7179
-86.0757
-89.0643
-91.6164
-93.677
-95.188
-96.1402
-96.5435
-96.3471
-95.4594
-93.7817
-91.2213
-87.6938
-83.1274
-77.4725
-70.7127
-62.8767
-54.0579
-44.4419
-34.3551
-24.5866
14.0093
18.3502
23.0894
28.015
32.6283
37.0209
41.0213
44.342
46.9361
48.9156
50.3516
51.3338
51.9806
52.3752
52.5792
52.6382
52.5799
52.4194
52.1611
51.7996
51.322
50.7057
49.9183
48.9285
47.7397
46.3843
44.8867
43.2666
41.5519
39.7797
37.9973
36.2594
34.6264
33.1589
31.9081
30.9106
30.1645
29.5992
29.0442
8.58922
3.94499
-1.36843
-7.00516
-12.4916
-18.2263
-23.9507
-29.4863
-34.9087
-40.1249
-45.1163
-49.9211
-54.5226
-58.9363
-63.1722
-67.2231
-71.078
-74.7158
-78.1026
-81.1969
-83.9454
-86.2875
-88.1742
-89.5562
-90.4281
-90.8035
-90.6394
-89.8542
-88.3579
-86.0656
-82.8979
-78.7866
-73.6805
-67.5583
-60.438
-52.3951
-43.5861
-34.2922
-25.2254
12.9468
17.0917
21.6222
26.3367
30.7573
34.9732
38.8199
42.0202
44.5278
46.4496
47.8527
48.8222
49.4712
49.8802
50.1081
50.1994
50.1819
50.0706
49.8713
49.5804
49.187
48.6717
48.0053
47.1588
46.1331
44.9557
43.6468
42.2221
40.704
39.1228
37.5176
35.9343
34.4235
33.0368
31.8182
30.7982
29.976
29.292
28.611
7.80554
3.37955
-1.67996
-7.03962
-12.2481
-17.6851
-23.1029
-28.3323
-33.4455
-38.3544
-43.0414
-47.544
-51.8466
-55.9644
-59.9076
-63.6701
-67.2428
-70.6066
-73.7313
-76.5797
-79.1037
-81.2492
-82.9721
-84.2314
-85.0247
-85.3688
-85.2281
-84.5297
-83.1927
-81.1396
-78.2973
-74.6009
-70.0002
-64.4699
-58.0187
-50.7057
-42.6598
-34.1193
-25.725
11.9628
15.9203
20.2508
24.7628
28.9985
33.0445
36.7431
39.8273
42.251
44.1163
45.4868
46.4426
47.0922
47.5131
47.7615
47.881
47.8988
47.8305
47.6826
47.4534
47.1337
46.7071
46.1472
45.4274
44.5469
43.5286
42.3894
41.1414
39.8025
38.3971
36.957
35.5202
34.1285
32.8251
31.6471
30.6192
29.7413
28.9634
28.1812
7.08678
2.86935
-1.94757
-7.04296
-11.9869
-17.1406
-22.2674
-27.2069
-32.0276
-36.6463
-41.0471
-45.2658
-49.2878
-53.1286
-56.7982
-60.2916
-63.601
-66.7096
-69.5904
-72.2097
-74.5246
-76.4863
-78.056
-79.1992
-79.9169
-80.2283
-80.104
-79.4792
-78.2822
-76.4424
-73.8935
-70.5748
-66.4376
-61.4542
-55.6254
-48.9953
-41.6674
-33.8403
-26.0884
11.0524
14.8303
18.9694
23.2871
27.3453
31.2277
34.7837
37.7558
40.0983
41.9085
43.2464
44.1878
44.8365
45.2667
45.5326
45.6764
45.7249
45.694
45.591
45.4154
45.1601
44.8108
44.3444
43.7365
42.9848
42.1082
41.1208
40.0318
38.8553
37.6106
36.3234
35.0244
33.7477
32.5288
31.398
30.3754
29.4604
28.6116
27.751
6.42862
2.41064
-2.17454
-7.01776
-11.7098
-16.5941
-21.4445
-26.1092
-30.6535
-34.9983
-39.1295
-43.0812
-46.8403
-50.4216
-53.8357
-57.078
-60.1421
-63.0132
-65.6672
-68.0736
-70.1939
-71.9846
-73.4114
-74.4459
-75.0919
-75.3702
-75.257
-74.6952
-73.6211
-71.9718
-69.687
-66.711
-62.9975
-58.517
-53.2642
-47.2699
-40.6146
-33.4602
-26.3205
10.2109
13.817
17.7723
21.9036
25.7912
29.5164
32.935
35.7988
38.0623
39.8186
41.1243
42.0506
42.6969
43.1343
43.4149
43.5794
43.6546
43.6561
43.5919
43.4628
43.2634
42.9817
42.5971
42.0876
41.4497
40.6989
39.8466
38.9001
37.87
36.7715
35.6249
34.4545
33.2879
32.1532
31.0752
30.0691
29.134
28.235
27.3168
5.82708
1.9997
-2.36389
-6.9666
-11.4184
-16.0467
-20.6348
-25.039
-29.3216
-33.408
-37.2852
-40.986
-44.4985
-47.8372
-51.0124
-54.0207
-56.8566
-59.507
-61.9501
-64.159
-66.0987
-67.7308
-69.0249
-69.9583
-70.5365
-70.7823
-70.6766
-70.169
-69.2033
-67.7239
-65.6767
-63.0111
-59.6832
-55.6634
-50.9411
-45.5357
-39.5073
-32.985
-26.4265
9.43381
12.8754
16.6545
20.6069
24.3306
27.9044
31.1905
33.9494
36.1364
37.8401
39.1137
40.0241
40.6666
41.1093
41.402
41.5843
41.6823
41.7116
41.681
41.5923
41.4413
41.2181
40.905
40.4817
39.9441
39.3044
38.572
37.7525
36.8537
35.8874
34.8692
33.8183
32.756
31.7046
30.6833
29.7033
28.7628
27.8323
26.8754
5.27822
1.63318
-2.51871
-6.89179
-11.1149
-15.4994
-19.8383
-23.9957
-28.0308
-31.8734
-35.5114
-38.9764
-42.2578
-45.3693
-48.3216
-51.1116
-53.7351
-56.1804
-58.4282
-60.4538
-62.2265
-63.7119
-64.8835
-65.7232
-66.2385
-66.453
-66.3519
-65.8913
-65.0216
-63.6938
-61.8601
-59.4747
-56.4968
-52.8973
-48.6615
-43.7991
-38.3525
-32.4216
-26.413
8.71692
12.0008
15.6111
19.3915
22.9576
26.3858
29.5439
32.2016
34.3142
35.9663
37.2079
38.1019
38.7393
39.1855
39.488
39.6852
39.8026
39.8558
39.854
39.7999
39.6908
39.5183
39.2674
38.9195
38.4697
37.9278
37.3015
36.5947
35.8132
34.9658
34.0643
33.1234
32.1595
31.1893
30.2274
29.2814
28.3483
27.4027
26.4238
4.77841
1.30778
-2.6418
-6.79568
-10.8011
-14.9535
-19.0558
-22.9792
-26.7803
-30.3926
-33.8054
-37.0488
-40.1134
-43.0126
-45.7568
-48.3435
-50.7696
-53.0245
-55.0911
-56.9474
-58.5659
-59.9159
-60.9746
-61.7279
-62.1851
-62.3703
-62.2721
-61.8525
-61.068
-59.8755
-58.2335
-56.1006
-53.4395
-50.2218
-46.4302
-42.0663
-37.1573
-31.7776
-26.2873
8.05623
11.1891
14.6373
18.2527
21.6673
24.9551
27.9898
30.5494
32.5897