/*--------------------------------*- C++ -*----------------------------------*\
| =========                 |                                                 |
| \\      /  F ield         | OpenFOAM: The Open Source CFD Toolbox           |
|  \\    /   O peration     | Version:  2312                                  |
|   \\  /    A nd           | Website:  www.openfoam.com                      |
|    \\/     M anipulation  |                                                 |
\*---------------------------------------------------------------------------*/
FoamFile
{
    version     2.0;
    format      ascii;
    arch        "LSB;label=32;scalar=64";
    class       surfaceScalarField;
    location    "400";
    object      phi;
}
// * * * * * * * * * * * * * * * * * * * * * * * * * * * * * * * * * * * * * //

dimensions      [0 3 -1 0 0 0 0];

oriented        oriented;

internalField   nonuniform List<scalar> 
21254
(
-0.2338
0.253398
-0.0195977
0.275396
-0.0219979
0.294333
-0.0189371
0.311246
-0.0169133
0.327221
-0.015975
0.339949
-0.0127281
0.349933
-0.00998361
0.357923
-0.00798975
0.362951
-0.00502834
0.366014
-0.00306315
0.367163
-0.00114823
0.365845
0.00131775
0.362193
0.00365177
0.356027
0.00616603
0.346947
0.00907996
0.334842
0.0121053
0.318931
0.0159104
0.298529
0.0204019
0.272471
0.0260582
0.240006
0.0324652
0.200644
0.0393626
0.157726
0.0429175
0.119274
0.038452
0.0951102
0.0241639
0.0901242
0.00498606
0.0996427
-0.00951844
0.113617
-0.0139749
0.126102
-0.012485
0.135154
-0.00905143
0.140769
-0.00561486
0.143515
-0.00274585
0.143544
-2.9205e-05
0.140723
0.0028211
0.135159
0.00556327
0.12658
0.00858013
0.11396
0.0126199
0.0954331
0.0185271
0.0671574
0.0282766
0.0662155
0.000953699
-0.210716
-0.0230842
-0.186778
-0.0239385
-0.157389
-0.0293888
-0.125183
-0.0322062
-0.0912714
-0.0339114
-0.0563293
-0.0349421
-0.0219497
-0.0343795
0.00991971
-0.0318695
0.0388805
-0.0289608
0.0644587
-0.0255783
0.0864121
-0.0219534
0.105104
-0.0186924
0.120826
-0.0157218
0.133921
-0.0130947
0.145107
-0.0111856
0.154705
-0.00959877
0.163194
-0.00848858
0.170803
-0.00760945
0.177842
-0.00703908
0.184431
-0.00658806
0.190736
-0.00630548
0.196743
-0.00600706
0.202376
-0.00563326
0.206984
-0.00460734
0.210386
-0.00340195
0.212907
-0.00252161
0.214604
-0.0016971
0.215706
-0.00110135
0.216351
-0.000645554
0.216533
-0.000182094
0.216037
0.000496209
0.214777
0.00126043
0.212751
0.00202563
0.209999
0.00275191
0.206437
0.00356207
0.201731
0.0047061
0.194918
0.00681335
0.181098
0.01382
0.161217
0.0198799
-0.213179
0.234686
-0.0411052
0.25671
-0.0440221
0.279735
-0.0419613
0.301247
-0.0384253
0.322288
-0.0370167
0.341872
-0.0323117
0.359598
-0.0277094
0.37575
-0.0241419
0.389959
-0.0192375
0.402304
-0.0154085
0.413023
-0.0118664
0.422562
-0.00822137
0.431262
-0.00504839
0.439174
-0.00174567
0.446088
0.00216541
0.451567
0.00662635
0.455276
0.0122014
0.456854
0.0188244
0.454948
0.027964
0.44838
0.0390327
0.434682
0.0530614
0.412244
0.0653547
0.380902
0.0697944
0.345657
0.059409
0.313014
0.0376291
0.284865
0.0186301
0.260963
0.00992708
0.241423
0.00705513
0.226491
0.00588034
0.215541
0.00533519
0.206717
0.00607815
0.198432
0.0082558
0.189741
0.0115122
0.17989
0.0154151
0.16813
0.0203404
0.152938
0.0278121
0.133143
0.0383217
0.0994034
0.0620172
0.0714172
0.0289473
-0.191219
-0.045044
-0.167719
-0.0474382
-0.140206
-0.0569023
-0.1111
-0.0613115
-0.0801852
-0.0648267
-0.0478565
-0.0672708
-0.0156146
-0.0666214
0.0152082
-0.0626923
0.0433622
-0.0571148
0.0684119
-0.0506279
0.0901896
-0.0437311
0.109073
-0.0375761
0.125518
-0.0321668
0.139747
-0.0273235
0.152209
-0.0236481
0.163208
-0.0205973
0.173036
-0.0183166
0.182001
-0.0165746
0.19036
-0.015398
0.198224
-0.0144518
0.205756
-0.0138375
0.213027
-0.013278
0.219969
-0.0125752
0.226124
-0.0107621
0.231218
-0.00849674
0.235442
-0.00674568
0.238699
-0.00495396
0.240897
-0.00329933
0.241988
-0.00173614
0.242078
-0.000272046
0.241392
0.00118206
0.240115
0.00253715
0.238266
0.00387471
0.235842
0.00517595
0.232766
0.0066385
0.22874
0.00873106
0.223786
0.0117684
0.213441
0.0241649
0.19539
0.0379299
-0.206941
0.228639
-0.0628026
0.250486
-0.0658697
0.274075
-0.0655497
0.295637
-0.0599876
0.316131
-0.0575105
0.335727
-0.0519078
0.353126
-0.0451089
0.368721
-0.0397363
0.382062
-0.0325782
0.393413
-0.0267597
0.402736
-0.0211897
0.410163
-0.0156483
0.415545
-0.0104308
0.419363
-0.00556365
0.421618
-8.91475e-05
0.423338
0.00490591
0.424623
0.0109167
0.426406
0.0170419
0.429119
0.0252503
0.433448
0.0347045
0.439368
0.0471411
0.444871
0.0598513
0.446115
0.0685504
0.44019
0.0653346
0.428136
0.0496829
0.412461
0.0343052
0.394204
0.0281837
0.372838
0.0284214
0.348211
0.0305067
0.321621
0.031926
0.295506
0.0321933
0.271926
0.0318357
0.25125
0.0321875
0.232253
0.0344126
0.213223
0.0393703
0.192031
0.0490048
0.167135
0.0632177
0.129588
0.0995642
0.0870819
0.071457
-0.185103
-0.0668823
-0.161173
-0.0713681
-0.13255
-0.085525
-0.102786
-0.0910757
-0.071683
-0.0959299
-0.0393921
-0.0995617
-0.00749524
-0.0985182
0.0222862
-0.0924737
0.0495767
-0.0844052
0.0742821
-0.0753333
0.096077
-0.065526
0.115137
-0.0566363
0.131846
-0.0488755
0.14648
-0.0419578
0.159348
-0.0365155
0.170787
-0.0320361
0.181062
-0.028592
0.190441
-0.0259534
0.199131
-0.0240879
0.207296
-0.0226173
0.215124
-0.021665
0.222626
-0.0207809
0.229707
-0.0196562
0.236066
-0.0171205
0.241413
-0.0138436
0.24586
-0.0111932
0.249477
-0.00857051
0.252301
-0.00612369
0.254398
-0.00383254
0.255758
-0.00163254
0.25644
0.000500279
0.256406
0.00257127
0.255661
0.00461908
0.254134
0.00670316
0.25174
0.00903293
0.248125
0.0123452
0.242973
0.0169212
0.232687
0.0344506
0.214883
0.0557336
-0.199339
0.222022
-0.0854856
0.244787
-0.0886351
0.269821
-0.0905835
0.292676
-0.0828424
0.314837
-0.0796716
0.33609
-0.0731607
0.355614
-0.0646331
0.373234
-0.0573561
0.389162
-0.0485061
0.403178
-0.0407756
0.415393
-0.0334054
0.425823
-0.0260774
0.43453
-0.0191382
0.44159
-0.0126233
0.447302
-0.00580209
0.451123
0.00108549
0.453157
0.00888298
0.453178
0.0170205
0.451738
0.0266906
0.449322
0.0371201
0.447189
0.0492743
0.446606
0.0604339
0.447054
0.0681026
0.446268
0.0661202
0.442343
0.0536082
0.435848
0.0407999
0.428158
0.0358745
0.419565
0.0370138
0.408999
0.041073
0.394765
0.0461605
0.375401
0.0515572
0.350743
0.0564932
0.322722
0.0602092
0.294032
0.0631019
0.265969
0.0674342
0.237204
0.0777698
0.205656
0.0947651
0.162907
0.142315
0.112311
0.122056
-0.176944
-0.0892775
-0.152939
-0.0953731
-0.123818
-0.114646
-0.0939227
-0.120971
-0.062756
-0.127097
-0.0303628
-0.131955
0.0014471
-0.130328
0.0308541
-0.121881
0.0576738
-0.111225
0.0820059
-0.0996654
0.103499
-0.0870189
0.122395
-0.0755325
0.139126
-0.0656063
0.153945
-0.0567766
0.167172
-0.0497424
0.179031
-0.0438953
0.189816
-0.0393776
0.199706
-0.0358433
0.208931
-0.0333124
0.217628
-0.0313147
0.225908
-0.0299455
0.233838
-0.0287104
0.241356
-0.027174
0.24814
-0.0239048
0.253942
-0.0196452
0.258822
-0.016074
0.262834
-0.0125824
0.266029
-0.0093189
0.26844
-0.00624267
0.270134
-0.00332699
0.271145
-0.000510532
0.271494
0.00222188
0.271176
0.00493714
0.270174
0.00770538
0.268365
0.0108423
0.265378
0.0153316
0.260652
0.0216478
0.250922
0.0441801
0.232552
0.0741033
-0.195501
0.219005
-0.10899
0.242641
-0.11227
0.269066
-0.117009
0.292661
-0.106437
0.315799
-0.10281
0.33809
-0.0954518
0.358427
-0.0849703
0.376915
-0.0758437
0.393842
-0.0654332
0.408554
-0.0554878
0.421431
-0.0462823
0.432404
-0.0370504
0.44175
-0.0284844
0.44915
-0.0200226
0.454747
-0.0113991
0.458607
-0.0027748
0.461005
0.00648462
0.462067
0.0159589
0.46166
0.0270978
0.460211
0.0385685
0.45783
0.0516558
0.454934
0.0633301
0.451599
0.0714377
0.447144
0.070575
0.440914
0.059838
0.433356
0.0483574
0.425645
0.0435856
0.418521
0.0441381
0.412029
0.0475654
0.405821
0.0523684
0.398796
0.0585822
0.388871
0.0664181
0.373368
0.0757117
0.350583
0.0858867
0.321296
0.096722
0.287368
0.111697
0.249253
0.132881
0.200613
0.190955
0.144214
0.178458
-0.172055
-0.112723
-0.147322
-0.120106
-0.116937
-0.145031
-0.0861894
-0.151718
-0.0542901
-0.158996
-0.0212465
-0.164999
0.0109649
-0.162539
0.040411
-0.151327
0.0670979
-0.137912
0.0912164
-0.123784
0.112466
-0.108269
0.131192
-0.0942583
0.147894
-0.0823088
0.162793
-0.0716756
0.176206
-0.0631548
0.188394
-0.0560839
0.199536
-0.0505191
0.209815
-0.0461222
0.219425
-0.0429228
0.228505
-0.0403947
0.237146
-0.0385866
0.245389
-0.0369527
0.253196
-0.034981
0.260291
-0.0310002
0.266411
-0.0257655
0.271589
-0.0212512
0.275863
-0.0168565
0.279286
-0.0127425
0.281881
-0.00883722
0.283681
-0.00512743
0.284731
-0.00156066
0.285098
0.00185558
0.284788
0.00524706
0.283786
0.00870742
0.282069
0.0125593
0.279302
0.0180976
0.274957
0.0259934
0.266412
0.052725
0.248616
0.0918996
-0.192327
0.216847
-0.13351
0.241805
-0.137229
0.26961
-0.144814
0.294411
-0.131238
0.318573
-0.126972
0.342235
-0.119114
0.363551
-0.106286
0.383333
-0.0956259
0.401274
-0.0833746
0.417259
-0.0714727
0.431516
-0.0605392
0.443861
-0.0493953
0.454524
-0.0391474
0.4635
-0.0289987
0.47066
-0.0185593
0.476366
-0.00848092
0.480221
0.00263009
0.482345
0.0138347
0.482932
0.0265111
0.48196
0.0395406
0.479666
0.0539499
0.476303
0.0666931
0.471602
0.0761386
0.465103
0.0770741
0.456622
0.0683182
0.446784
0.0581959
0.436617
0.0537524
0.426762
0.0539935
0.417409
0.0569182
0.408717
0.0610604
0.400934
0.0663649
0.393998
0.0733548
0.387017
0.0826925
0.37733
0.0955741
0.360647
0.113405
0.33341
0.138934
0.295017
0.171273
0.242428
0.243545
0.181241
0.239647
-0.167917
-0.137134
-0.142371
-0.145652
-0.11068
-0.176722
-0.0787915
-0.183606
-0.0458912
-0.191896
-0.0119201
-0.19897
0.0210108
-0.19547
0.0508215
-0.181137
0.0776178
-0.164708
0.101689
-0.147855
0.122791
-0.129371
0.141332
-0.112799
0.157911
-0.0988878
0.172792
-0.0865563
0.186281
-0.0766447
0.198639
-0.0684415
0.210027
-0.0619068
0.22064
-0.0567355
0.230605
-0.0528882
0.240052
-0.0498413
0.249071
-0.0476054
0.257683
-0.0455648
0.265834
-0.0431316
0.273337
-0.0385041
0.279862
-0.0322904
0.285397
-0.0267855
0.290033
-0.0214927
0.293768
-0.0164775
0.296644
-0.0117136
0.298694
-0.00717751
0.299962
-0.00282829
0.300476
0.00134151
0.300245
0.00547808
0.299294
0.00965887
0.297484
0.0143683
0.294581
0.0210011
0.289912
0.0306627
0.281547
0.0610898
0.264166
0.109281
-0.190476
0.216324
-0.159358
0.242323
-0.163228
0.271694
-0.174184
0.297765
-0.15731
0.323175
-0.152382
0.347907
-0.143846
0.370379
-0.128758
0.390998
-0.116245
0.409967
-0.102344
0.426865
-0.0883707
0.441922
-0.0755959
0.455276
-0.0627487
0.466798
-0.0506697
0.476561
-0.0387621
0.484639
-0.0266372
0.490862
-0.0147033
0.495418
-0.00192682
0.498302
0.0109506
0.499653
0.0251603
0.499565
0.0396293
0.498244
0.0552706
0.495749
0.0691879
0.491953
0.079935
0.486111
0.0829161
0.478013
0.076416
0.468144
0.0680648
0.457448
0.064448
0.446515
0.0649268
0.43548
0.0679539
0.424343
0.0721972
0.413302
0.0774054
0.402708
0.0839492
0.393062
0.0923381
0.384586
0.10405
0.375928
0.122064
0.361791
0.153071
0.33414
0.198925
0.285308
0.292377
0.222086
0.302871
-0.164854
-0.162755
-0.138198
-0.172308
-0.10505
-0.209871
-0.0718457
-0.21681
-0.0377394
-0.226003
-0.00252159
-0.234188
0.0313953
-0.229387
0.0618761
-0.211618
0.0890316
-0.191864
0.113272
-0.172095
0.134328
-0.150427
0.152747
-0.131218
0.169206
-0.115347
0.184007
-0.101357
0.197487
-0.0901248
0.209931
-0.080885
0.22151
-0.0734856
0.232366
-0.0675914
0.242632
-0.063155
0.252403
-0.0596117
0.261747
-0.05695
0.27068
-0.0544969
0.279175
-0.0516268
0.286988
-0.0463168
0.293888
-0.0391911
0.299795
-0.0326923
0.304735
-0.0264326
0.308761
-0.0205036
0.31187
-0.0148231
0.314127
-0.00943369
0.315534
-0.00423533
0.316155
0.000720422
0.316004
0.0056285
0.315042
0.0106216
0.313226
0.0161841
0.31023
0.0239961
0.305359
0.0355349
0.296977
0.0694713
0.280108
0.12615
-0.189314
0.216498
-0.186542
0.243928
-0.190658
0.27498
-0.205236
0.302253
-0.184583
0.328952
-0.179081
0.354933
-0.169827
0.378423
-0.152248
0.400251
-0.138072
0.420037
-0.12213
0.437872
-0.106206
0.453985
-0.0917084
0.468215
-0.0769794
0.480645
-0.0630989
0.4914
-0.0495179
0.500429
-0.0356658
0.507709
-0.0219829
0.513302
-0.0075199
0.5172
0.00705211
0.519379
0.022982
0.519964
0.039044
0.519179
0.0560557
0.51705
0.0713167
0.513501
0.0834839
0.508139
0.0882782
0.500596
0.0839586
0.491218
0.0774431
0.480826
0.0748404
0.469947
0.0758052
0.458658
0.0792436
0.446938
0.0839172
0.434699
0.0896439
0.422021
0.0966278
0.409062
0.105296
0.396426
0.116687
0.385031
0.133459
0.374773
0.163329
0.35923
0.214468
0.322939
0.328668
0.263922
0.36189
-0.162461
-0.189609
-0.134644
-0.200125
-0.0997804
-0.244734
-0.0650525
-0.251538
-0.0295085
-0.261547
0.00707736
-0.270773
0.0422149
-0.264525
0.0735849
-0.242988
0.101292
-0.219571
0.125842
-0.196644
0.146995
-0.17158
0.165357
-0.14958
0.181713
-0.131703
0.19641
-0.116054
0.209827
-0.103542
0.22231
-0.0933685
0.233976
-0.0851511
0.245005
-0.0786209
0.255496
-0.0736463
0.265543
-0.069658
0.275174
-0.066581
0.284433
-0.0637567
0.293257
-0.0604502
0.301438
-0.0544985
0.30871
-0.0464629
0.314986
-0.0389679
0.320282
-0.0317283
0.32463
-0.0248524
0.328022
-0.0182149
0.330501
-0.0119125
0.332118
-0.0058521
0.332879
-4.07261e-05
0.332822
0.00568524
0.331912
0.0115323
0.330046
0.0180497
0.326949
0.0270924
0.32189
0.0405942
0.313386
0.0779755
0.297026
0.14251
-0.188985
0.217539
-0.215096
0.246418
-0.219537
0.279169
-0.237988
0.307833
-0.213246
0.336
-0.207247
0.363338
-0.197165
0.388047
-0.176958
0.410761
-0.160786
0.431658
-0.143028
0.450328
-0.124875
0.46715
-0.108531
0.482199
-0.0920279
0.495492
-0.0763925
0.50705
-0.0610757
0.516887
-0.0455023
0.525047
-0.0301437
0.531421
-0.0138937
0.536026
0.0024477
0.538925
0.0200825
0.540184
0.0377847
0.539987
0.0562533
0.538376
0.0729275
0.53525
0.0866102
0.530313
0.0932147
0.523287
0.0909849
0.51439
0.08634
0.50431
0.0849201
0.493634
0.086481
0.482494
0.0903838
0.470806
0.0956061
0.458504
0.101945
0.445488
0.109644
0.431606
0.119178
0.416795
0.131497
0.401439
0.148816
0.387023
0.177745
0.374551
0.226939
0.351085
0.352135
0.301992
0.410984
-0.160642
-0.217952
-0.131469
-0.229298
-0.0948253
-0.281378
-0.0585299
-0.287834
-0.0213306
-0.298746
0.0168392
-0.308943
0.0534507
-0.301136
0.0858814
-0.275419
0.114322
-0.248012
0.139353
-0.221675
0.160722
-0.192949
0.179129
-0.167987
0.195431
-0.148005
0.210033
-0.130656
0.223369
-0.116879
0.235801
-0.1058
0.247516
-0.0968664
0.258648
-0.0897523
0.269304
-0.0843021
0.279574
-0.0799283
0.289493
-0.0765
0.299024
-0.0732882
0.308154
-0.0695795
0.316684
-0.0630293
0.324342
-0.0541208
0.330967
-0.0455927
0.336614
-0.0373753
0.341258
-0.0294965
0.344944
-0.0219011
0.347669
-0.0146374
0.349467
-0.00764993
0.350378
-0.000952136
0.3504
0.00566342
0.349529
0.0124036
0.347662
0.0199166
0.344491
0.0302625
0.339256
0.04583
0.330725
0.0865067
0.314946
0.158289
-0.189085
0.219252
-0.245263
0.249681
-0.249966
0.284326
-0.272634
0.314449
-0.243369
0.343908
-0.236706
0.37272
-0.225977
0.398603
-0.202841
0.422458
-0.184641
0.444344
-0.164914
0.463895
-0.144427
0.481578
-0.126213
0.497509
-0.107959
0.51152
-0.0904027
0.523809
-0.0733647
0.534525
-0.0562183
0.54341
-0.0390288
0.550591
-0.0210753
0.555969
-0.00292949
0.559683
0.0163684
0.561702
0.0357648
0.562019
0.0559371
0.560881
0.0740651
0.558121
0.0893701
0.553547
0.0977888
0.546894
0.0976378
0.538293
0.0949409
0.528436
0.0947776
0.517857
0.0970595
0.506669
0.101572
0.49494
0.107335
0.482589
0.114297
0.469523
0.12271
0.455581
0.13312
0.440474
0.146604
0.423863
0.165428
0.405666
0.195942
0.38952
0.243085
0.371662
0.369994
0.332318
0.45033
-0.159367
-0.24767
-0.128726
-0.259938
-0.0901194
-0.319985
-0.0519625
-0.325991
-0.0130746
-0.337634
0.0269368
-0.348955
0.0650903
-0.33929
0.0987688
-0.309098
0.128114
-0.277358
0.153794
-0.247355
0.1755
-0.214654
0.194022
-0.18651
0.210335
-0.164317
0.224864
-0.145185
0.23811
-0.130124
0.250482
-0.118173
0.262176
-0.10856
0.273348
-0.100925
0.284139
-0.0950928
0.294582
-0.0903716
0.304689
-0.0866067
0.314501
-0.0830998
0.323936
-0.0790153
0.332798
-0.0718907
0.340804
-0.0621271
0.347813
-0.0526018
0.353792
-0.0433543
0.358779
-0.0344837
0.362749
-0.0258708
0.365727
-0.0176153
0.367751
-0.00967447
0.368808
-0.00200858
0.368951
0.00552012
0.368138
0.013217
0.366252
0.0218021
0.36299
0.0335249
0.357632
0.0511881
0.349089
0.0950491
0.33387
0.173508
-0.189793
0.221533
-0.277003
0.253544
-0.281976
0.290121
-0.309211
0.321926
-0.275174
0.353002
-0.267782
0.38329
-0.256265
0.410323
-0.229874
0.435409
-0.209727
0.458335
-0.187839
0.478832
-0.164924
0.497312
-0.144693
0.513885
-0.124533
0.528702
-0.105219
0.541843
-0.0865056
0.553158
-0.0675332
0.562826
-0.0486977
0.570734
-0.0289827
0.576896
-0.00909194
0.581249
0.0120157
0.583889
0.0331252
0.584832
0.0549939
0.584124
0.0747724
0.581778
0.091717
0.57761
0.101956
0.571385
0.103863
0.563207
0.10312
0.553566
0.104418
0.542996
0.10763
0.531766
0.112803
0.519822
0.119279
0.507225
0.126893
0.493933
0.136001
0.479813
0.14724
0.464626
0.16179
0.447981
0.182073
0.428825
0.215098
0.408657
0.263252
0.39019
0.388462
0.355326
0.485195
-0.1584
-0.279063
-0.126248
-0.292089
-0.0855632
-0.36067
-0.0454713
-0.366083
-0.00461553
-0.378489
0.0372719
-0.390842
0.0771966
-0.379215
0.112274
-0.344175
0.142693
-0.307777
0.1691
-0.273762
0.191281
-0.236836
0.210028
-0.205257
0.226424
-0.180713
0.240914
-0.159676
0.25408
-0.14329
0.266368
-0.130461
0.278012
-0.120205
0.289201
-0.112113
0.300031
-0.105923
0.310595
-0.100936
0.320913
-0.0969245
0.330952
-0.0931388
0.340646
-0.0887097
0.349838
-0.0810824
0.358195
-0.0704845
0.365557
-0.0599633
0.371903
-0.0497002
0.377211
-0.0397917
0.381495
-0.0301548
0.384733
-0.0208535
0.386956
-0.0118972
0.388205
-0.0032581
0.388455
0.00527077
0.387705
0.0139664
0.385811
0.0236962
0.382497
0.0368383
0.377006
0.0566805
0.368473
0.103581
0.353879
0.188102
-0.190813
0.224354
-0.310544
0.258125
-0.315748
0.296744
-0.34783
0.330155
-0.308585
0.362847
-0.300474
0.394722
-0.28814
0.423265
-0.258416
0.449491
-0.235954
0.473495
-0.211843
0.494901
-0.186331
0.514285
-0.164076
0.531729
-0.141977
0.547171
-0.120661
0.560944
-0.100278
0.573041
-0.0796304
0.583406
-0.0590627
0.591979
-0.0375554
0.598778
-0.0158912
0.603799
0.00699464
0.607087
0.0298371
0.608621
0.0534607
0.60844
0.0749535
0.606516
0.0936405
0.602739
0.105733
0.596915
0.109687
0.589117
0.110917
0.579731
0.113804
0.569281
0.11808
0.557962
0.124122
0.545851
0.131391
0.532955
0.139789
0.519273
0.149684
0.504764
0.161749
0.489202
0.177352
0.472371
0.198905
0.453384
0.234085
0.431402
0.285235
0.41041
0.409455
0.376009
0.519597
-0.157778
-0.312098
-0.123897
-0.32597
-0.0810742
-0.403493
-0.038886
-0.408271
0.00401656
-0.421392
0.0479583
-0.434784
0.0898339
-0.42109
0.126417
-0.380758
0.158018
-0.339377
0.185334
-0.301078
0.2081
-0.259601
0.22717
-0.224328
0.243682
-0.197224
0.258194
-0.174188
0.271299
-0.156395
0.283509
-0.14267
0.295072
-0.131768
0.306223
-0.123264
0.317092
-0.116792
0.327728
-0.111572
0.338173
-0.10737
0.348398
-0.103364
0.358371
-0.0986825
0.367865
-0.0905762
0.376562
-0.0791818
0.384278
-0.0676786
0.390963
-0.0563855
0.396618
-0.0454469
0.401186
-0.0347224
0.404708
-0.0243754
0.407167
-0.0143563
0.408585
-0.00467664
0.40898
0.00487559
0.408284
0.0146629
0.406407
0.0255727
0.40303
0.0402153
0.397432
0.0622793
0.388973
0.11204
0.375015
0.20206
-0.192322
0.227577
-0.345799
0.263211
-0.351383
0.303992
-0.38861
0.339259
-0.343852
0.373707
-0.334922
0.407228
-0.321661
0.437194
-0.288382
0.46476
-0.26352
0.489832
-0.236915
0.512231
-0.20873
0.532458
-0.184303
0.550648
-0.160168
0.566917
-0.13693
0.581404
-0.114765
0.594125
-0.0923521
0.605093
-0.0700301
0.61434
-0.0468024
0.621825
-0.023377
0.62748
0.00133962
0.631292
0.0260255
0.63337
0.051383
0.633645
0.0746781
0.632145
0.0951409
0.62882
0.109058
0.623495
0.115011
0.616091
0.118322
0.607015
0.12288
0.596679
0.128416
0.585339
0.135461
0.573089
0.143641
0.559942
0.152936
0.545888
0.163738
0.530882
0.176754
0.514775
0.193458
0.497391
0.21629
0.478303
0.253173
0.455981
0.307556
0.433185
0.432251
0.398461
0.554322
-0.157369
-0.347051
-0.121823
-0.361517
-0.0766303
-0.448685
-0.0322468
-0.452654
0.0129037
-0.466542
0.0591153
-0.480995
0.102964
-0.464939
0.141257
-0.419051
0.174163
-0.372284
0.202493
-0.329407
0.225939
-0.283047
0.245418
-0.243807
0.262165
-0.213971
0.276747
-0.188769
0.289821
-0.16947
0.301957
-0.154807
0.313439
-0.143249
0.324526
-0.134351
0.335366
-0.127632
0.346048
-0.122255
0.356586
-0.117907
0.366986
-0.113764
0.377172
-0.108869
0.386961
-0.100366
0.395976
-0.0881965
0.404032
-0.0757343
0.411062
-0.0634152
0.417026
-0.0514112
0.421918
-0.0396146
0.425718
-0.0281754
0.428423
-0.0170615
0.430048
-0.00630153
0.430574
0.00434958
0.429969
0.0152683
0.428098
0.027443
0.424699
0.0436146
0.419023
0.0679559
0.410601
0.120461
0.397323
0.215338
-0.19407
0.231272
-0.383002
0.268874
-0.388984
0.311957
-0.431693
0.349117
-0.381013
0.385352
-0.371157
0.420637
-0.356945
0.452155
-0.319901
0.481041
-0.292406
0.507352
-0.263226
0.530755
-0.232132
0.551955
-0.205502
0.570939
-0.179152
0.587927
-0.153919
0.603097
-0.129934
0.61637
-0.105625
0.628025
-0.0816847
0.637894
-0.0566719
0.645968
-0.0314506
0.652248
-0.00494046
0.65668
0.0215935
0.659261
0.048802
0.660034
0.0739048
0.658981
0.0961947
0.656068
0.11197
0.651157
0.119922
0.644161
0.125318
0.635418
0.131623
0.625269
0.138566
0.61395
0.14678
0.601586
0.156005
0.588199
0.166324
0.573814
0.178122
0.558342
0.192227
0.541704
0.210096
0.523647
0.234347
0.503995
0.272826
0.481466
0.330085
0.457923
0.455795
0.423441
0.588805
-0.157332
-0.383789
-0.119741
-0.399107
-0.0721649
-0.496262
-0.0254024
-0.499417
0.0220667
-0.514012
0.0706161
-0.529545
0.116734
-0.511057
0.156819
-0.459136
0.191202
-0.406667
0.220645
-0.358851
0.244881
-0.307283
0.264843
-0.263769
0.281878
-0.231007
0.296575
-0.203466
0.309647
-0.182542
0.321737
-0.166897
0.333145
-0.154657
0.344137
-0.145343
0.354932
-0.138426
0.365623
-0.132946
0.376226
-0.12851
0.386743
-0.124281
0.397138
-0.119264
0.407184
-0.110412
0.416498
-0.0975099
0.424877
-0.0841132
0.43224
-0.0707788
0.438546
-0.0577175
0.443752
-0.0448199
0.447836
-0.03226
0.450785
-0.0200104
0.452603
-0.00811902
0.453287
0.0036648
0.452774
0.0157817
0.450936
0.0292813
0.447507
0.047043
0.441786
0.0736775
0.43349
0.128757
0.420864
0.227964
-0.196125
0.235436
-0.422313
0.275065
-0.428613
0.320563
-0.477191
0.359684
-0.420134
0.397856
-0.409328
0.435098
-0.394187
0.46815
-0.352953
0.498487
-0.322743
0.526162
-0.290901
0.550674
-0.256645
0.57277
-0.227598
0.592611
-0.198993
0.610241
-0.171549
0.626095
-0.145789
0.640128
-0.119658
0.652354
-0.0939105
0.662825
-0.0671428
0.67146
-0.0400856
0.678206
-0.0116867
0.683161
0.016639
0.68628
0.0456823
0.687471
0.0727143
0.686857
0.0968082
0.684382
0.114446
0.67993
0.124375
0.673405
0.131843
0.664964
0.140064
0.655017
0.148513
0.643791
0.158006
0.631351
0.168445
0.617777
0.179898
0.603067
0.192831
0.587215
0.208079
0.570053
0.227257
0.551342
0.253058
0.530945
0.293223
0.507977
0.353052
0.484038
0.479734
0.450414
0.622428
-0.157382
-0.422532
-0.117909
-0.43858
-0.0676691
-0.546501
-0.0184185
-0.548667
0.0315458
-0.563976
0.0826676
-0.580666
0.131082
-0.559471
0.173153
-0.501207
0.209067
-0.44258
0.239779
-0.389563
0.264879
-0.332382
0.28545
-0.28434
0.302848
-0.248404
0.317726
-0.218344
0.330857
-0.195674
0.342901
-0.178941
0.354225
-0.165981
0.36515
-0.156269
0.375874
-0.14915
0.386528
-0.143599
0.397158
-0.139141
0.407786
-0.134909
0.41835
-0.129827
0.428626
-0.120688
0.438237
-0.10712
0.44692
-0.092796
0.454604
-0.0784632
0.461221
-0.0643341
0.466738
-0.0503375
0.471099
-0.0366204
0.47431
-0.0232222
0.476357
-0.0101659
0.477187
0.00283552
0.476792
0.0161764
0.475004
0.0310693
0.471564
0.050482
0.465826
0.0794171
0.457626
0.136957
0.445697
0.239893
-0.198543
0.240016
-0.463786
0.281776
-0.470374
0.329793
-0.525208
0.370985
-0.461326
0.411279
-0.449622
0.450481
-0.43339
0.485245
-0.387716
0.517145
-0.354644
0.546122
-0.319878
0.571739
-0.282261
0.594837
-0.250695
0.615563
-0.219719
0.634072
-0.190059
0.650565
-0.162282
0.665192
-0.134285
0.678003
-0.106722
0.689021
-0.0781612
0.698201
-0.0492651
0.705573
-0.0190584
0.711001
0.0112103
0.714545
0.042139
0.716227
0.071032
0.716007
0.0970281
0.713949
0.116503
0.709917
0.128407
0.703817
0.137942
0.695765
0.148116
0.686051
0.158227
0.674902
0.169155
0.662422
0.180925
0.648694
0.193626
0.633723
0.207802
0.617459
0.224343
0.599808
0.244909
0.580534
0.272333
0.559448
0.314309
0.535789
0.376711
0.511431
0.504093
0.478839
0.655022
-0.157632
-0.463443
-0.116011
-0.480202
-0.0630646
-0.599447
-0.0111808
-0.600551
0.0414333
-0.61659
0.0952476
-0.634481
0.146166
-0.61039
0.190316
-0.545357
0.227936
-0.4802
0.259978
-0.421606
0.286077
-0.358481
0.307299
-0.305563
0.325119
-0.266224
0.340242
-0.233467
0.353462
-0.208894
0.365512
-0.19099
0.376768
-0.177237
0.387604
-0.167104
0.398248
-0.159795
0.408858
-0.154209
0.419484
-0.149766
0.430165
-0.14559
0.440875
-0.140537
0.451387
-0.131201
0.461246
-0.116979
0.47021
-0.10176
0.478199
-0.0864519
0.485128
-0.0712633
0.490953
-0.0561628
0.495615
-0.0412824
0.499086
-0.0266927
0.501333
-0.0124128
0.502358
0.00181044
0.502071
0.0164635
0.500348
0.0327922
0.496921
0.0539084
0.49118
0.0851582
0.483141
0.144995
0.47193
0.251104
-0.201169
0.244866
-0.507482
0.288959
-0.514467
0.339661
-0.57591
0.383091
-0.504757
0.42555
-0.492081
0.466792
-0.474632
0.503417
-0.42434
0.536934
-0.388161
0.567299
-0.350243
0.594155
-0.309117
0.618393
-0.274933
0.639982
-0.241309
0.659264
-0.209341
0.676493
-0.17951
0.691722
-0.149514
0.705135
-0.120134
0.716688
-0.0897143
0.726418
-0.0589951
0.734231
-0.0268714
0.740174
0.00526687
0.744156
0.0381575
0.74622
0.0689674
0.746438
0.0968103
0.744782
0.11816
0.741209
0.13198
0.73552
0.143631
0.72783
0.155806
0.718374
0.167682
0.707337
0.180193
0.69487
0.193391
0.681009
0.207487
0.665792
0.223019
0.649176
0.240959
0.63106
0.263024
0.611257
0.292136
0.589503
0.336063
0.565168
0.401046
0.540271
0.52899
0.508576
0.686717
-0.158033
-0.506578
-0.114198
-0.524037
-0.0583806
-0.655265
-0.00365939
-0.655272
0.0517341
-0.671983
0.108362
-0.691108
0.161991
-0.664019
0.208333
-0.591699
0.24779
-0.519657
0.281279
-0.455094
0.308431
-0.385633
0.330397
-0.327529
0.348738
-0.284564
0.364153
-0.248883
0.377512
-0.222253
0.389606
-0.203084
0.400826
-0.188457
0.411584
-0.177862
0.422142
-0.170353
0.432675
-0.164743
0.443287
-0.160378
0.454003
-0.156306
0.464827
-0.151362
0.475513
-0.141886
0.485602
-0.127069
0.494847
-0.111005
0.50312
-0.0947253
0.510361
-0.0785045
0.516475
-0.0622762
0.521426
-0.0462333
0.525157
-0.0304242
0.527651
-0.0149071
0.528845
0.00061717
0.52868
0.0166282
0.527044
0.0344282
0.523641
0.057311
0.517959
0.0908411
0.510074
0.15288
0.499549
0.261629
-0.204117
0.250217
-0.553583
0.296754
-0.561003
0.350147
-0.629303
0.396045
-0.550654
0.440678
-0.536714
0.484195
-0.518149
0.522673
-0.462819
0.557912
-0.4234
0.589824
-0.382155
0.617994
-0.337287
0.643223
-0.300163
0.665855
-0.26394
0.685908
-0.229394
0.703858
-0.19746
0.719822
-0.165479
0.733773
-0.134085
0.745898
-0.101839
0.756116
-0.0692133
0.764456
-0.0352118
0.770807
-0.0010838
0.775201
0.0337639
0.77771
0.0664584
0.778259
0.0962609
0.776997
0.119421
0.773813
0.135165
0.768538
0.148906
0.761235
0.163109
0.752061
0.176856
0.741217
0.191036
0.728766
0.205842
0.714808
0.221446
0.699363
0.238463
0.682412
0.257911
0.663874
0.281563
0.643507
0.312503
0.621199
0.358372
0.596219
0.426025
0.57068
0.554529
0.539759
0.717639
-0.158637
-0.552058
-0.112417
-0.570256
-0.0535137
-0.714169
0.00411855
-0.712905
0.0625079
-0.730373
0.122152
-0.750752
0.178528
-0.720395
0.2273
-0.640471
0.268671
-0.561028
0.303755
-0.490179
0.332074
-0.413952
0.354871
-0.350325
0.373776
-0.303469
0.389543
-0.26465
0.403098
-0.235808
0.415244
-0.215229
0.426467
-0.199681
0.437145
-0.18854
0.447615
-0.180823
0.458071
-0.175198
0.468636
-0.170943
0.479366
-0.167036
0.490286
-0.162281
0.501137
-0.152738
0.511442
-0.137374
0.520918
-0.120481
0.529455
-0.103261
0.536966
-0.0860162
0.543383
-0.0686928
0.548606
-0.0514563
0.552614
-0.0344319
0.555324
-0.0176172
0.556724
-0.000782881
0.556722
0.0166297
0.555151
0.0359994
0.551836
0.0606258
0.546203
0.0964742
0.538549
0.160534
0.52872
0.271458
-0.207294
0.255926
-0.602215
0.304937
-0.610014
0.3614
-0.685765
0.409614
-0.598869
0.456772
-0.583872
0.502559
-0.563936
0.543149
-0.503409
0.580124
-0.460374
0.613624
-0.415655
0.643132
-0.366795
0.669645
-0.326676
0.693212
-0.287507
0.71421
-0.250392
0.732918
-0.216168
0.749513
-0.182075
0.764082
-0.148654
0.776716
-0.114473
0.787402
-0.079899
0.796149
-0.0439592
0.802941
-0.00787598
0.807773
0.0289322
0.810583
0.0636487
0.811504
0.0953396
0.810633
0.120293
0.807839
0.137959
0.803007
0.153739
0.796076
0.17004
0.787181
0.185751
0.776493
0.201725
0.764127
0.218208
0.75011
0.235464
0.734476
0.254096
0.717224
0.275163
0.698268
0.300518
0.677422
0.333349
0.654548
0.381246
0.628998
0.451574
0.602855
0.580673
0.572573
0.74792
-0.159343
-0.60001
-0.110618
-0.618981
-0.0484941
-0.776293
0.0122096
-0.773608
0.0737422
-0.791905
0.136579
-0.81359
0.195964
-0.77978
0.247218
-0.691725
0.290665
-0.604476
0.327409
-0.526923
0.356999
-0.443541
0.380712
-0.374039
0.400252
-0.323009
0.416446
-0.280845
0.43024
-0.249602
0.442502
-0.227491
0.453727
-0.210905
0.464363
-0.199176
0.474748
-0.191208
0.485142
-0.185593
0.495634
-0.181435
0.506371
-0.177772
0.517348
-0.173259
0.528339
-0.163729
0.538834
-0.147869
0.548514
-0.130161
0.557313
-0.112061
0.565089
-0.0937926
0.571759
-0.0753627
0.577285
-0.0569819
0.581543
-0.0386898
0.584499
-0.0205735
0.586077
-0.00236074
0.586229
0.0164783
0.584796
0.0374321
0.581543
0.0638777
0.576037
0.101981
0.568591
0.16798
0.559467
0.280582
-0.210759
0.262012
-0.653467
0.313699
-0.661701
0.373217
-0.745284
0.424156
-0.649808
0.473761
-0.633476
0.522081
-0.612256
0.564693
-0.546021
0.603625
-0.499306
0.638827
-0.450857
0.669824
-0.397791
0.697518
-0.35437
0.722241
-0.31223
0.744123
-0.272274
0.763629
-0.235673
0.780867
-0.199313
0.796072
-0.163859
0.809208
-0.127609
0.820364
-0.0910549
0.82959
-0.0531853
0.836756
-0.015042
0.84192
0.0237686
0.845093
0.0604755
0.846346