/*--------------------------------*- C++ -*----------------------------------*\
| =========                 |                                                 |
| \\      /  F ield         | OpenFOAM: The Open Source CFD Toolbox           |
|  \\    /   O peration     | Version:  2312                                  |
|   \\  /    A nd           | Website:  www.openfoam.com                      |
|    \\/     M anipulation  |                                                 |
\*---------------------------------------------------------------------------*/
FoamFile
{
    version     2.0;
    format      ascii;
    arch        "LSB;label=32;scalar=64";
    class       volScalarField;
    location    "400";
    object      turbulenceProperties:L;
}
// * * * * * * * * * * * * * * * * * * * * * * * * * * * * * * * * * * * * * //

dimensions      [0 1 0 0 0 0 0];

internalField   nonuniform List<scalar> 
10720
(
0.00178916
0.00171338
0.00164699
0.00158336
0.00154548
0.00152527
0.00152699
0.0015552
0.00161195
0.0017001
0.00182524
0.0019934
0.00221098
0.00249245
0.00286019
0.00334528
0.00400926
0.00491162
0.00628114
0.00817051
0.0117149
0.0166905
0.0291023
0.0467102
0.054694
0.0564696
0.0575878
0.059173
0.0605993
0.0614553
0.0618531
0.062047
0.062189
0.062346
0.0625867
0.0629527
0.0638516
0.0646815
0.0652117
0.0018828
0.00198104
0.00214047
0.00233276
0.00260318
0.00298971
0.00351488
0.00403409
0.00396956
0.00348028
0.00297188
0.0026007
0.0023772
0.00228677
0.00231393
0.0024469
0.00268211
0.00302787
0.00350751
0.00416049
0.00506185
0.00630314
0.00810034
0.0106569
0.0146865
0.0206335
0.030445
0.0433102
0.0512757
0.0542886
0.0551795
0.0555188
0.0557283
0.0558724
0.0559807
0.0560832
0.0562072
0.0564334
0.0565264
0.00386726
0.00387791
0.00390033
0.00395797
0.00405249
0.00417004
0.00432273
0.00451617
0.00473544
0.00498438
0.0052624
0.00548441
0.00552549
0.00534579
0.00500191
0.00478965
0.0049905
0.00555583
0.00657182
0.00776935
0.0101258
0.0130518
0.0187123
0.0301159
0.041493
0.054178
0.069057
0.0853488
0.101187
0.115558
0.129254
0.143046
0.155786
0.166564
0.175304
0.182076
0.186332
0.187503
0.181471
0.00388514
0.00391215
0.00396875
0.00405742
0.00418866
0.00438254
0.00464794
0.00495708
0.00530273
0.00572803
0.00624553
0.00682954
0.00747727
0.00820249
0.00901977
0.0099435
0.0110085
0.0122572
0.0138297
0.0160363
0.0198628
0.0282128
0.060526
0.233843
0.116417
0.0106148
0.021382
0.0578544
0.107137
0.156023
0.19457
0.215836
0.222319
0.221015
0.217004
0.212398
0.207405
0.198333
0.175243
0.00473349
0.00475256
0.00480736
0.00489476
0.00499151
0.00510471
0.00522736
0.00534568
0.00545431
0.0055436
0.00561617
0.00566001
0.00567337
0.00565282
0.00564467
0.00572099
0.00618807
0.00656106
0.0137499
3.16214
0.00847922
0.00886316
0.0649865
0.0152562
0.0249925
0.0337942
0.0442212
0.0587462
0.0773064
0.0983658
0.119621
0.139452
0.158539
0.178017
0.197616
0.216526
0.233685
0.249296
0.245446
0.00471494
0.00471755
0.0047236
0.00476587
0.00484411
0.00498485
0.00520091
0.00548586
0.0057979
0.006182
0.00669463
0.00733612
0.00809999
0.00899243
0.0100035
0.0111269
0.0123242
0.013544
0.0147006
0.015743
0.0166075
0.017255
0.0176527
0.0178905
0.0179241
0.017957
0.0174186
0.0228417
0.0157179
0.0446896
0.101285
0.175196
0.221674
0.24158
0.252158
0.258857
0.261732
0.273185
0.246076
0.00514935
0.005144
0.00515696
0.00517856
0.00522403
0.00529399
0.0053853
0.00550622
0.00565495
0.00583439
0.00604764
0.00630024
0.00660062
0.0069572
0.00738483
0.00793085
0.0086189
0.00934107
0.0106554
0.0150775
0.067881
0.0342602
0
0.00629854
0.0151984
0.0283419
0.032125
0.0573001
0.0714064
0.0818784
0.103121
0.127619
0.152209
0.175428
0.198497
0.222855
0.247513
0.272781
0.280551
0.00517721
0.0052203
0.00529015
0.0053781
0.00549485
0.00565982
0.00587259
0.00612761
0.00643188
0.00681955
0.00730439
0.0078676
0.00849127
0.00916733
0.00988483
0.0106366
0.011403
0.0121667
0.0129046
0.0136158
0.0142893
0.0149394
0.0156042
0.016409
0.0173811
0.018336
0.0191712
0.0198509
0.0207707
0.0221756
0.0255532
0.0322393
0.0458527
0.156702
0.239744
0.234401
0.245891
0.257497
0.242404
0.00594552
0.00595079
0.00597417
0.00601655
0.00608395
0.00617905
0.00630018
0.00644969
0.00662767
0.00682784
0.00704718
0.00727877
0.00751144
0.00773429
0.00793576
0.008118
0.00832482
0.00860614
0.00892605
0.00946107
0.0104607
0.0140964
0.070694
0.194324
0
0
0.0114459
0.012828
0.0198784
0.0158487
0.034804
0.127279
0.187036
0.184941
0.20261
0.22448
0.24991
0.280357
0.298116
0.00595324
0.00597438
0.00601722
0.00608774
0.00619157
0.00634814
0.00655208
0.00679455
0.00708528
0.0074518
0.00790073
0.00842915
0.00903612
0.0097266
0.0105027
0.0113641
0.0123029
0.0133033
0.0143392
0.0153902
0.0164311
0.0174563
0.0184901
0.0196693
0.0211332
0.0228227
0.0244976
0.0258938
0.0265992
0.0276268
0.0253429
0.0584632
0.0235845
0.0396147
0.0728742
0.0780451
0.113388
0.109939
0.192273
0.00656695
0.00655299
0.00655432
0.00656606
0.00659855
0.00665225
0.00672627
0.00682574
0.00695177
0.00710484
0.0072884
0.0075038
0.00775225
0.00803621
0.00835808
0.00873618
0.00921318
0.00979379
0.0104446
0.011166
0.0117763
0.0125298
0.0135059
0.0250435
0.110097
0.194861
0.417725
0
0
0.00952302
0.0159768
0.0348111
0.0172955
0.106202
0.312503
0.250135
0.257433
0.283145
0.305243
0.0065969
0.00663897
0.00670167
0.00678716
0.00690188
0.00706186
0.0072605
0.00749346
0.00777413
0.0081244
0.00854726
0.00904133
0.00960449
0.0102366
0.0109348
0.0116914
0.0124947
0.0133283
0.0141727
0.0150139
0.0158438
0.0166744
0.0175448
0.0185618
0.0198307
0.0213174
0.0229298
0.024603
0.0263295
0.0280806
0.0298937
0.0318837
0.0355394
0.042429
0.631547
0.0484978
0.0648028
0.0602454
0.0989609
0.00730141
0.00728544
0.0072829
0.00729213
0.00732135
0.00737279
0.00744658
0.00754702
0.00767638
0.00783505
0.00802511
0.00824731
0.00850056
0.00878307
0.00909295
0.00942285
0.00975523
0.010099
0.0104892
0.0109506
0.0114718
0.0119977
0.0123355
0.0132061
0.0159698
0.0224846
0.0493642
0.160531
0.250566
1.63472
0
0
0.0110392
0.0444241
0.0415945
0.222033
0.309777
0.294181
0.308931
0.00733156
0.00737299
0.00743457
0.00752193
0.00764003
0.0078
0.0079923
0.00821903
0.00849253
0.00882627
0.00922327
0.00968447
0.0102112
0.0108063
0.0114711
0.0122037
0.0130002
0.0138516
0.0147451
0.0156704
0.0166199
0.0175999
0.0186432
0.0198434
0.0213121
0.0230546
0.0250006
0.0270864
0.0292881
0.0315335
0.0335968
0.0351786
0.0362494
0.0380639
0.0441969
0.180618
0.328248
3.59535
0.0219412
0.00802
0.00799277
0.00797674
0.0079703
0.00798123
0.00801133
0.00806001
0.00813203
0.00822926
0.00835218
0.00850432
0.00868698
0.00890151
0.00915009
0.00943469
0.00975635
0.0101278
0.0105732
0.0110899
0.0116545
0.01224
0.0127874
0.0132269
0.0135404
0.0141483
0.0153479
0.0174838
0.0216011
0.0291155
0.188629
0.237722
2.72713
0
0
0.0253242
0.0851875
0.187351
0.335646
0.316443
0.00806144
0.00811223
0.00818187
0.00827714
0.0084014
0.00856339
0.0087515
0.00897395
0.00924123
0.00956006
0.00993528
0.0103681
0.010861
0.0114179
0.0120402
0.0127258
0.0134717
0.014269
0.0151061
0.0159735
0.0168671
0.0177944
0.0187869
0.0199207
0.0212838
0.0228853
0.0246789
0.0266338
0.0287725
0.0311277
0.0336939
0.0364811
0.0395129
0.0428038
0.0456244
0.0478436
0.0551212
0.289156
0.0641387
0.00878105
0.00874666
0.00872185
0.00870646
0.00870701
0.00872575
0.00876257
0.00882236
0.00890708
0.00901805
0.00915853
0.00933038
0.0095352
0.00977519
0.0100513
0.0103659
0.0107187
0.0111018
0.0115181
0.0119727
0.0124633
0.0129707
0.013477
0.0139622
0.0145102
0.0152871
0.0162953
0.0175643
0.0191397
0.0224954
0.0282569
0.281164
0.359339
0
0
0
0.0913412
0.305587
0.333344
0.00882884
0.00888515
0.00895955
0.00906132
0.0091903
0.00935355
0.00953962
0.00975927
0.0100207
0.0103267
0.0106823
0.0110895
0.0115516
0.0120733
0.0126578
0.0133056
0.0140158
0.0147845
0.0156053
0.0164724
0.0173842
0.0183501
0.0193999
0.0205974
0.0220196
0.0236911
0.0255795
0.0276555
0.0299298
0.0324174
0.0350824
0.0377963
0.0403495
0.0424733
0.0438789
0.0437061
0.0421667
0.0408343
0.453278
0.00956368
0.00952016
0.00948432
0.00945685
0.00944415
0.00944742
0.00946717
0.00950817
0.00957192
0.00965988
0.00977552
0.00992059
0.010097
0.0103073
0.0105536
0.0108385
0.0111631
0.0115362
0.011966
0.0124444
0.0129508
0.0134611
0.0139644
0.0144941
0.0151276
0.01595
0.0169451
0.0180073
0.0190213
0.0200117
0.0211371
0.0246337
0.0404617
0.230019
0
0
0.020412
0.0869503
0.356983
0.00962026
0.00968375
0.00976469
0.00987419
0.0100086
0.0101728
0.0103589
0.0105773
0.0108331
0.0111279
0.0114663
0.0118505
0.0122846
0.0127746
0.0133238
0.0139338
0.0146064
0.0153388
0.0161279
0.0169702
0.0178655
0.0188236
0.0198712
0.0210596
0.0224546
0.0240811
0.0259172
0.0279419
0.0301705
0.0326328
0.0353311
0.0382326
0.0412922
0.0442913
0.0469452
0.0475457
0.0478324
0.0374533
0.065307
0.0103792
0.0103272
0.0102812
0.0102428
0.0102184
0.0102084
0.0102143
0.0102401
0.0102879
0.010359
0.0104571
0.0105841
0.0107424
0.0109348
0.0111634
0.0114305
0.0117388
0.0120887
0.0124793
0.0129097
0.013371
0.0138522
0.014347
0.0148839
0.0155383
0.016388
0.0174399
0.018587
0.0196978
0.0206605
0.0214993
0.0221133
0.0235655
0.0309362
0.205062
0
0
0.0716662
0.321949
0.010444
0.0105144
0.0106013
0.0107185
0.0108587
0.011024
0.0112114
0.0114296
0.0116804
0.011965
0.0122885
0.0126526
0.0130615
0.0135217
0.0140379
0.0146131
0.0152507
0.0159512
0.0167135
0.0175373
0.018426
0.01939
0.0204542
0.0216631
0.0230726
0.0247102
0.0265663
0.0286262
0.0309028
0.0334188
0.0361671
0.039085
0.0420445
0.0447669
0.0469622
0.0472696
0.0473332
0.0399345
0.0355675
0.0112264
0.0111651
0.0111084
0.0110586
0.0110217
0.0109979
0.0109887
0.0109984
0.0110288
0.0110812
0.0111593
0.011265
0.0114008
0.0115694
0.0117734
0.0120153
0.0122975
0.0126209
0.0129907
0.0134072
0.0138585
0.014332
0.0148231
0.015356
0.0159971
0.0168193
0.0178403
0.0189855
0.0201466
0.0212537
0.0223098
0.0231149
0.0235907
0.0241008
0.0295311
0.240246
0
0.0366134
0.214768
0.0112998
0.0113779
0.0114712
0.0115963
0.0117424
0.0119099
0.0120995
0.0123182
0.0125647
0.012841
0.0131511
0.0134971
0.0138833
0.0143171
0.0148029
0.0153453
0.0159498
0.0166184
0.0173535
0.0181562
0.019031
0.0199895
0.0210559
0.0222691
0.0236737
0.0252981
0.0271403
0.0291913
0.0314638
0.0339811
0.0367461
0.0397161
0.0428104
0.0457956
0.0483372
0.0490731
0.0487949
0.0430592
0.0340656
0.0121089
0.0120381
0.0119706
0.0119094
0.0118602
0.0118231
0.0117993
0.0117937
0.0118078
0.0118429
0.0119028
0.0119893
0.0121051
0.0122532
0.0124361
0.0126564
0.0129169
0.0132178
0.0135614
0.0139481
0.0143719
0.0148242
0.0153048
0.0158338
0.0164644
0.0172588
0.018236
0.0193389
0.0204758
0.021601
0.0227253
0.0238134
0.0246872
0.0250915
0.0246816
0.0344805
6.62933
0.0226555
0.123752
0.012191
0.0122771
0.0123772
0.0125101
0.0126625
0.0128331
0.0130256
0.0132455
0.0134886
0.0137575
0.014056
0.0143863
0.0147525
0.0151617
0.0156203
0.016133
0.0167064
0.0173447
0.0180524
0.0188336
0.0196949
0.0206489
0.0217189
0.0229383
0.024346
0.0259691
0.0278132
0.0298755
0.0321691
0.0347164
0.0375212
0.0405382
0.0436713
0.0466753
0.0492044
0.0500329
0.0496836
0.0448549
0.0355454
0.0130284
0.012948
0.0128693
0.0127963
0.0127346
0.0126836
0.0126452
0.0126242
0.0126218
0.0126396
0.0126811
0.0127483
0.0128436
0.0129701
0.0131303
0.013327
0.0135633
0.0138394
0.0141578
0.014521
0.0149253
0.0153618
0.0158316
0.0163527
0.0169695
0.0177355
0.0186699
0.0197271
0.0208266
0.0219253
0.023028
0.0241401
0.025212
0.0261073
0.0263574
0.02442
0.240538
0.0431705
0.0627937
0.0131198
0.0132141
0.0133219
0.0134625
0.0136212
0.0137962
0.0139928
0.0142138
0.0144546
0.0147174
0.0150062
0.0153223
0.0156704
0.0160582
0.0164914
0.0169765
0.0175213
0.0181312
0.0188122
0.0195712
0.0204173
0.0213638
0.0224331
0.0236538
0.0250597
0.0266779
0.0285179
0.0305827
0.0328869
0.0354526
0.0382877
0.0413543
0.0445721
0.0477144
0.0504372
0.0514864
0.0512604
0.0466208
0.0374642
0.0139876
0.0138974
0.013807
0.0137222
0.0136479
0.0135827
0.0135298
0.0134935
0.0134748
0.0134756
0.0134991
0.0135473
0.0136228
0.0137285
0.0138673
0.0140418
0.0142546
0.0145074
0.0148008
0.0151377
0.0155184
0.0159351
0.0163901
0.0168999
0.0175011
0.0182393
0.0191334
0.0201481
0.0212139
0.0222866
0.0233638
0.0244398
0.0255158
0.0264268
0.0278124
0.0253289
0.0367791
0.949832
0.0204336
0.014089
0.0141917
0.0143076
0.0144565
0.0146218
0.0148022
0.0150034
0.0152261
0.0154653
0.0157233
0.0160035
0.0163076
0.0166401
0.0170085
0.0174193
0.0178791
0.0183969
0.01898
0.0196362
0.0203739
0.0212035
0.0221395
0.0232046
0.0244268
0.0258339
0.0274501
0.0292896
0.0313615
0.0336821
0.0362747
0.0391501
0.0422756
0.0455744
0.0488232
0.0516819
0.0529083
0.0528155
0.0484727
0.0394428
0.0149893
0.0148886
0.0147864
0.0146894
0.0146018
0.0145224
0.0144546
0.0144027
0.0143676
0.0143513
0.014357
0.0143866
0.0144425
0.0145277
0.0146446
0.0147963
0.0149855
0.0152143
0.0154825
0.0157943
0.0161521
0.0165495
0.0169885
0.0174839
0.0180672
0.0187771
0.0196315
0.0206039
0.0216356
0.022684
0.0237415
0.0247932
0.0258442
0.0267206
0.0279749
0.0278452
0.0259409
1.94699
0.0517482
0.0151007
0.0152128
0.015337
0.0154946
0.0156667
0.0158536
0.0160603
0.0162855
0.0165241
0.0167784
0.0170515
0.017345
0.0176635
0.018015
0.0184054
0.0188431
0.0193366
0.0198948
0.020527
0.0212434
0.0220563
0.0229813
0.0240413
0.0252612
0.0266667
0.0282803
0.0301198
0.0321985
0.0345353
0.037155
0.0400727
0.0432626
0.0466588
0.0500509
0.0531057
0.0545721
0.0546266
0.0505494
0.0415414
0.0160361
0.0159244
0.0158101
0.0157004
0.0155991
0.0155053
0.0154223
0.0153546
0.0153033
0.0152701
0.0152581
0.0152693
0.0153055
0.0153701
0.0154656
0.0155949
0.0157608
0.0159659
0.0162096
0.0164961
0.0168295
0.0172059
0.0176268
0.018105
0.0186679
0.0193488
0.0201644
0.0210948
0.0220915
0.0231143
0.0241524
0.0251901
0.0262151
0.0271435
0.0279414
0.0296836
0.02525
0.934696
1.1972
0.0161577
0.0162795
0.016413
0.0165798
0.0167591
0.0169534
0.0171664
0.0173946
0.0176334
0.0178852
0.0181526
0.0184374
0.0187443
0.0190806
0.0194535
0.0198706
0.0203422
0.0208772
0.0214868
0.0221824
0.022978
0.0238911
0.0249445
0.0261618
0.0275654
0.0291784
0.0310195
0.0331068
0.0354627
0.038114
0.0410804
0.0443447
0.0478504
0.0513991
0.0546658
0.0563958
0.0566153
0.0528075
0.0438192
0.0171307
0.0170077
0.016881
0.0167577
0.0166428
0.0165338
0.0164354
0.0163517
0.0162838
0.0162333
0.0162036
0.016196
0.016213
0.0162575
0.0163319
0.016439
0.0165816
0.0167627
0.0169821
0.0172435
0.0175519
0.0179068
0.018308
0.0187667
0.0193072
0.0199582
0.0207354
0.0216241
0.0225845
0.02358
0.0245962
0.0256209
0.026624
0.027601
0.0282314
0.0301025
0.0268622
0.0444963
0.777259
0.017263
0.017395
0.0175385
0.0177149
0.017902
0.0181047
0.0183246
0.0185568
0.018797
0.0190474
0.0193105
0.019588
0.0198848
0.0202085
0.0205658
0.0209651
0.0214169
0.0219311
0.0225196
0.0231957
0.0239743
0.0248736
0.0259177
0.0271316
0.0285358
0.0301487
0.0319923
0.0340896
0.0364665
0.0391528
0.0421737
0.0455225
0.0491541
0.052887
0.0564085
0.0584513
0.0588616
0.0552807
0.0463047
0.0182761
0.0181416
0.0180015
0.0178647
0.0177352
0.0176108
0.0174962
0.0173963
0.0173115
0.0172438
0.0171963
0.0171705
0.0171683
0.0171928
0.017246
0.017331
0.0174505
0.0176074
0.0178028
0.0180391
0.0183223
0.0186547
0.0190345
0.0194716
0.0199877
0.0206083
0.0213476
0.0221951
0.0231184
0.0240846
0.0250775
0.0260855
0.0270749
0.0280536
0.0287588
0.0300214
0.029248
0.0301536
0.118986
0.0184197
0.0185625
0.0187165
0.018903
0.0190989
0.0193106
0.0195384
0.0197753
0.0200179
0.0202681
0.0205282
0.0208002
0.0210888
0.0214017
0.0217459
0.0221296
0.0225638
0.0230593
0.0236285
0.0242856
0.0250477
0.0259347
0.0269709
0.0281799
0.0295814
0.0311947
0.0330432
0.0351531
0.0375545
0.040281
0.0433645
0.0468103
0.0505859
0.0545317
0.0583498
0.060756
0.0613898
0.0580029
0.0490232
0.0194755
0.019329
0.0191751
0.0190239
0.0188794
0.0187389
0.0186081
0.0184913
0.0183894
0.0183042
0.0182387
0.0181943
0.0181729
0.018177
0.0182092
0.0182722
0.0183687
0.0185018
0.0186735
0.0188849
0.0191424
0.019451
0.0198084
0.0202223
0.0207126
0.0213019
0.0220035
0.0228102
0.0236958
0.0246315
0.0255998
0.0265883
0.0275692
0.0285247
0.029357
0.030149
0.0310073
0.0293606
0.0438776
0.0196309
0.0197852
0.0199503
0.0201472
0.0203534
0.0205748
0.0208111
0.0210539
0.0213
0.0215512
0.0218097
0.0220776
0.0223599
0.0226639
0.0229968
0.0233673
0.0237863
0.0242649
0.0248168
0.0254571
0.026203
0.0270766
0.028104
0.0293085
0.0307087
0.0323243
0.0341796
0.0363045
0.0387334
0.0415054
0.0446595
0.0482153
0.0521562
0.0563499
0.0605187
0.0633568
0.0642574
0.0610069
0.0519861
0.0207323
0.0205729
0.0204048
0.0202387
0.0200786
0.0199213
0.0197737
0.0196397
0.0195202
0.0194172
0.0193335
0.0192703
0.0192296
0.0192138
0.0192251
0.0192661
0.01934
0.0194494
0.019597
0.0197829
0.0200145
0.0202983
0.0206319
0.0210212
0.0214843
0.0220419
0.022706
0.0234723
0.0243198
0.0252236
0.0261664
0.0271338
0.0281065
0.029042
0.029953
0.0305892
0.0318415
0.0307834
0.0338719
0.0209
0.0210663
0.0212431
0.021451
0.0216685
0.0219007
0.0221462
0.0223959
0.0226466
0.0228999
0.0231586
0.0234243
0.0237018
0.0239989
0.0243226
0.024682
0.025088
0.025552
0.0260881
0.0267126
0.0274446
0.0283058
0.0293236
0.0305231
0.0319241
0.0335437
0.0354075
0.0375499
0.0400103
0.0428338
0.0460683
0.0497499
0.0538811
0.0583648
0.0629492
0.0663029
0.0675269
0.0643508
0.0552278
0.0220498
0.0218771
0.0216937
0.0215124
0.0213357
0.0211614
0.0209963
0.0208445
0.0207069
0.0205856
0.0204836
0.0204016
0.0203414
0.0203056
0.0202958
0.0203151
0.020366
0.0204515
0.0205748
0.0207358
0.0209416
0.0211997
0.0215084
0.0218722
0.0223068
0.0228317
0.0234584
0.0241846
0.0249937
0.0258646
0.0267805
0.0277264
0.0286875
0.0296147
0.0305516
0.0312268
0.0323207
0.0325158
0.032642
0.02223
0.0224095
0.0225985
0.0228182
0.0230479
0.0232917
0.0235475
0.0238052
0.0240617
0.0243189
0.0245787
0.0248435
0.0251181
0.0254104
0.0257273
0.0260775
0.0264726
0.0269244
0.0274471
0.0280577
0.028776
0.0296261
0.0306363
0.0318323
0.0332332
0.0348575
0.0367325
0.0388959
0.0413928
0.0442751
0.0476012
0.0514254
0.0557762
0.0605995
0.0656802
0.0696598
0.071276
0.0680911
0.0587749
0.0234316
0.0232449
0.0230459
0.0228484
0.0226545
0.0224624
0.022279
0.022109
0.0219528
0.0218129
0.0216919
0.0215907
0.0215108
0.0214547
0.021424
0.0214214
0.0214496
0.0215114
0.0216104
0.0217467
0.0219265
0.0221579
0.0224408
0.0227779
0.023183
0.0236748
0.0242644
0.0249507
0.0257212
0.0265581
0.0274461
0.0283701
0.0293174
0.0302435
0.0311822
0.0319536
0.0328634
0.0338878
0.033518
0.023625
0.0238182
0.0240203
0.0242526
0.0244955
0.0247518
0.025019
0.0252857
0.0255493
0.0258116
0.0260746
0.0263402
0.0266138
0.0269028
0.0272143
0.027558
0.0279446
0.028386
0.0288975
0.0294963
0.030203
0.0310429
0.0320461
0.033239
0.0346417
0.0362724
0.0381621
0.0403505
0.042889
0.0458373
0.0492665
0.0532529
0.0578567
0.0630781
0.0687555
0.0735068
0.0756155
0.0723034
0.0626539
0.0248814
0.0246801
0.024465
0.0242501
0.0240387
0.0238279
0.0236257
0.0234367
0.0232615
0.0231024
0.0229623
0.0228414
0.0227418
0.0226652
0.0226132
0.0225886
0.0225939
0.0226321
0.0227066
0.0228179
0.0229715
0.0231754
0.0234317
0.0237411
0.0241164
0.0245749
0.0251274
0.0257741
0.0265059
0.0273081
0.0281671
0.0290684
0.030001
0.0309277
0.031867
0.0327225
0.0335736
0.0349246
0.0349321
0.0250889
0.0252959
0.0255121
0.0257579
0.0260149
0.0262848
0.0265645
0.0268418
0.027114
0.0273829
0.0276501
0.027918
0.0281921
0.0284802
0.0287891
0.0291279
0.029508
0.0299414
0.0304436
0.0310324
0.0317291
0.0325603
0.0335576
0.0347492
0.0361559
0.0377971
0.039703
0.0419205
0.0445061
0.0475286
0.051074
0.0552441
0.0601374
0.0658247
0.0722248
0.0779442
0.0806816
0.0770917
0.0669093
0.0264034
0.0261868
0.0259547
0.0257216
0.0254919
0.0252617
0.0250399
0.0248313
0.0246363
0.0244575
0.0242976
0.0241568
0.024037
0.0239395
0.0238664
0.0238197
0.0238021
0.0238165
0.0238661
0.0239527
0.0240797
0.024256
0.0244854
0.0247669
0.0251113
0.0255358
0.0260512
0.0266585
0.0273516
0.0281188
0.0289479
0.0298259
0.0307432
0.0316695
0.0326154
0.0335298
0.03442
0.0358599
0.036394
0.0266257
0.0268472
0.0270784
0.0273384
0.0276104
0.0278952
0.0281884
0.0284774
0.0287596
0.0290365
0.0293098
0.0295822
0.0298591
0.0301476
0.0304553
0.0307917
0.0311676
0.0315952
0.0320902
0.0326715
0.0333605
0.0341851
0.0351781
0.0363697
0.0377813
0.039435
0.0413613
0.0436125
0.046251
0.0493572
0.053033
0.0574093
0.0626333
0.0688652
0.0761464
0.083106
0.086674
0.0825673
0.0715684
0.0280019
0.0277691
0.0275192
0.0272674
0.0270182
0.0267679
0.0265257
0.0262969
0.0260812
0.0258823
0.0257019
0.0255409
0.0254002
0.025282
0.0251872
0.0251182
0.0250775
0.0250679
0.0250927
0.0251544
0.0252549
0.0254029
0.0256046
0.0258571
0.0261705
0.0265613
0.0270399
0.0276085
0.0282628
0.0289945
0.0297932
0.0306475
0.0315489
0.0324749
0.0334313
0.034391
0.0353602
0.0368423
0.03781
0.0282392
0.0284763
0.0287235
0.0289984
0.0292865
0.0295873
0.0298951
0.0301973
0.0304909
0.0307775
0.0310585
0.0313368
0.0316181
0.0319095
0.0322182
0.0325538
0.0329276
0.0333521
0.0338423
0.0344176
0.0351009
0.0359212
0.0369129
0.0381073
0.0395273
0.0411948
0.0431458
0.0454348
0.0481329
0.0513319
0.055152
0.0597586
0.0653597
0.0722266
0.0805832
0.0891639
0.0938701
0.0888873
0.0766748
0.0296812
0.0294314
0.0291627
0.0288914
0.028622
0.0283506
0.0280874
0.0278373
0.0276005
0.0273804
0.0271792
0.0269972
0.0268355
0.0266958
0.0265791
0.0264876
0.0264238
0.0263901
0.02639
0.0264262
0.0265001
0.0266199
0.0267931
0.0270165
0.0272987
0.0276556
0.0280977
0.0286279
0.0292439
0.0299398
0.0307077
0.031538
0.0324235
0.0333476
0.0343181
0.0353184
0.0363718
0.0379155
0.0392179
0.0299341
0.0301873
0.0304515
0.0307424
0.0310475
0.0313658
0.0316894
0.0320059
0.0323123
0.0326104
0.032901
0.0331871
0.0334744
0.0337704
0.0340826
0.0344198
0.0347937
0.0352163
0.0357042
0.0362765
0.0369562
0.0377738
0.038766
0.0399648
0.0413954
0.0430807
0.0450596
0.0473918
0.0501564
0.0534571
0.0574365
0.0622983
0.0683227
0.0759249
0.0855981
0.0963449
0.102684
0.0962389
0.0822546
0.0314458
0.0311786
0.0308898
0.0305984
0.0303078
0.0300142
0.0297293
0.0294569
0.0291984
0.0289563
0.0287337
0.0285301
0.0283471
0.0281855
0.0280466
0.0279325
0.027845
0.0277872
0.0277618
0.0277724
0.0278193
0.027911
0.0280552
0.0282495
0.0285003
0.0288232
0.0292292
0.0297214
0.0302995
0.0309598
0.0316964
0.0325022
0.0333727
0.0342941
0.0352793
0.0363198
0.0374545
0.0390797
0.0406589
0.0317154
0.0319853
0.0322672
0.0325751
0.0328984
0.0332348
0.0335758
0.0339081
0.034229
0.0345401
0.0348421
0.035138
0.0354337
0.0357361
0.036053
0.0363939
0.0367699
0.0371937
0.0376813
0.0382526
0.0389316
0.0397493
0.0407441
0.0419502
0.0433939
0.0451005
0.0471116
0.0494918
0.0523289
0.05574
0.059892
0.0650321
0.0715244
0.0799669
0.0912442
0.104949
0.113773
0.10486
0.08833
0.033301
0.0330151
0.0327059
0.032393
0.0320805
0.0317641
0.031456
0.0311608
0.0308796
0.030615
0.03037
0.0301444
0.029939
0.0297551
0.0295936
0.0294562
0.029345
0.0292628
0.0292121
0.0291966
0.0292167
0.0292801
0.0293954
0.0295598
0.0297795
0.0300692
0.0304395
0.0308942
0.0314347
0.0320596
0.0327652
0.0335463
0.0344008
0.0353211
0.03632
0.0374036
0.0386162
0.0403325
0.0421575
0.0335882
0.0338751
0.0341755
0.034502
0.0348441
0.0351998
0.0355595
0.0359091
0.0362461
0.0365717
0.0368868
0.0371943
0.0375001
0.0378113
0.0381351
0.0384815
0.0388619
0.0392888
0.0397785
0.0403511
0.0410312
0.0418515
0.0428517
0.0440678
0.0455285
0.0472591
0.0493059
0.0517384
0.0546533
0.058183
0.0625184
0.0679566
0.0749575
0.084343
0.0975483
0.115362
0.128248
0.11501
0.0948905
0.0352521
0.0349464
0.0346159
0.0342806
0.0339449
0.0336049
0.0332725
0.0329537
0.0326486
0.0323608
0.0320926
0.0318441
0.0316159
0.0314093
0.0312246
0.031064
0.0309287
0.0308215
0.0307452
0.0307036
0.0306967
0.0307319
0.0308179
0.0309527
0.0311415
0.031398
0.031733
0.0321512
0.0326549
0.0332448
0.0339194
0.0346762
0.0355151
0.0364333
0.0374474
0.0385732
0.0398622
0.0416706
0.0437198
0.0355574
0.0358622
0.0361818
0.036528
0.0368899
0.0372659
0.0376456
0.038014
0.0383685
0.0387106
0.0390408
0.0393614
0.0396789
0.0400009
0.040334
0.0406883
0.041075
0.0415067
0.0420004
0.0425768
0.0432607
0.0440861
0.0450943
0.046323
0.0478022
0.0495608
0.0516464
0.0541356
0.0571331
0.060787
0.0653145
0.0710633
0.078602
0.0890096
0.104465
0.128024
0.148187
0.12692
0.101873
0.0373042
0.0369781
0.036625
0.0362666
0.0359067
0.0355416
0.0351844
0.0348407
0.0345108
0.0341987
0.0339067
0.0336347
0.0333831
0.0331531
0.0329449
0.03276
0.0326003
0.0324681
0.0323663
0.0322982
0.0322642
0.0322712
0.0323277
0.0324328
0.0325911
0.0328151
0.0331154
0.0334979
0.0339657
0.0345212
0.0351653
0.0358977
0.0367215
0.0376379
0.0386673
0.0398337
0.0411993
0.0431015
0.045352
0.0376285
0.0379522
0.0382916
0.0386585
0.0390413
0.0394388
0.0398394
0.0402281
0.0406017
0.0409621
0.0413085
0.0416449
0.0419766
0.0423104
0.0426543
0.0430183
0.0434136
0.0438526
0.0443527
0.0449349
0.0456248
0.046457
0.0474756
0.0487202
0.050221
0.0520098
0.0541371
0.0566854
0.0597687
0.0635492
0.0682716
0.0743332
0.0824163
0.0938803
0.111824
0.143258
0.178185
0.140583
0.109141
0.0394634
0.0391157
0.0387395
0.0383566
0.0379717
0.0375805
0.0371972
0.0368276
0.0364719
0.0361348
0.035818
0.0355216
0.0352459
0.0349917
0.0347593
0.03455
0.0343655
0.0342081
0.0340801
0.0339851
0.033924
0.0339027
0.0339301
0.0340059
0.0341341
0.0343261
0.0345928
0.0349402
0.035373
0.035895
0.0365092
0.0372179
0.0380266
0.0389417
0.0399863
0.0411941
0.0426326
0.0446256
0.0470604
0.0398076
0.0401508
0.0405111
0.0408994
0.0413041
0.041724
0.042147
0.042557
0.0429513
0.0433314
0.0436964
0.0440496
0.0443969
0.0447454
0.0451023
0.0454778
0.045883
0.0463311
0.0468397
0.0474292
0.0481269
0.0489686
0.0499999
0.0512621
0.0527875
0.0546083
0.0567796
0.0593886
0.0625579
0.0664632
0.0713748
0.0777391
0.0863434
0.0988212
0.11926
0.16058
0.231146
0.155276
0.116446
0.0417359
0.0413658
0.0409654
0.0405569
0.0401457
0.0397274
0.0393168
0.0389201
0.0385378
0.0381743
0.0378318
0.0375101
0.0372095
0.0369306
0.0366736
0.0364392
0.0362294
0.036046
0.0358915
0.0357697
0.0356817
0.0356322
0.0356303
0.0356774
0.035776
0.0359371
0.0361709
0.0364845
0.0368833
0.0373727
0.0379578
0.0386433
0.0394377
0.0403513
0.0414115
0.0426592
0.0441717
0.0462524
0.0488484
0.042101
0.042464
0.0428461
0.043257
0.0436843
0.0441276
0.0445741
0.0450066
0.0454228
0.045824
0.0462092
0.0465812
0.0469462
0.0473107
0.0476822
0.0480713
0.048488
0.0489469
0.0494655
0.0500649
0.0507729
0.0516258
0.0526711
0.0539525
0.0555035
0.0573584
0.0595745
0.0622434
0.0654951
0.0695192
0.0746061
0.0812432
0.0903046
0.103642
0.126171
0.177084
0.3713
0.168766
0.123429
0.0441283
0.043735
0.0433093
0.042874
0.0424355
0.0419886
0.0415496
0.0411245
0.0407143
0.0403232
0.0399542
0.0396063
0.0392799
0.0389755
0.038693
0.0384332
0.0381976
0.0379881
0.0378072
0.0376585
0.0375433
0.0374656
0.0374348
0.0374536
0.0375231
0.0376537
0.0378559
0.0381369
0.038503
0.0389611
0.0395182
0.0401814
0.040962
0.0418746
0.0429502
0.0442366
0.0458196
0.0479883
0.0507265
0.044515
0.0448987
0.0453033
0.0457375
0.0461883
0.0466558
0.0471264
0.047583
0.0480225
0.0484461
0.0488532
0.0492455
0.0496292
0.0500117
0.0503996
0.0508028
0.0512336
0.0517053
0.0522351
0.0528455
0.0535641
0.0544299
0.0554919
0.0567946
0.0583724
0.0602606
0.0625193
0.0652452
0.0685733
0.0727035
0.0779405
0.0847991
0.094208
0.108129
0.131827
0.186639
0.537628
0.177415
0.129663
0.0466475
0.0462301
0.0457781
0.045315
0.0448476
0.0443711
0.0439024
0.0434479
0.0430081
0.0425886
0.0421918
0.0418167
0.0414635
0.0411329
0.0408243
0.0405385
0.0402764
0.0400405
0.0398327
0.0396566
0.0395144
0.0394088
0.0393496
0.0393403
0.0393816
0.039483
0.0396548
0.0399045
0.0402394
0.0406675
0.0411977
0.0418397
0.0426072
0.0435192
0.0446097
0.0459345
0.0475839
0.0498362
0.0527011
0.0470568
0.047462
0.0478898
0.0483479
0.0488229
0.0493153
0.049811
0.0502925
0.0507561
0.0512036
0.0516335
0.0520476
0.0524523
0.0528538
0.0532591
0.0536787
0.0541246
0.0546094
0.0551518
0.0557748
0.0565061
0.0573858
0.0584637
0.0597876
0.0613923
0.0633134
0.0656125
0.0683892
0.0717828
0.0759975
0.0813482
0.0883565
0.0979589
0.112083
0.13565
0.185477
0.2849
0.179002
0.134775
0.049301
0.0488586
0.0483792
0.0478871
0.0473895
0.0468821
0.046382
0.0458963
0.045426
0.0449771
0.0445513
0.0441478
0.0437672
0.0434094
0.0430739
0.0427612
0.0424726
0.0422096
0.0419747
0.0417712
0.0416018
0.0414685
0.0413812
0.0413445
0.0413585
0.0414319
0.0415744
0.0417943
0.0420995
0.0424992
0.043004
0.0436259
0.0443813
0.045293
0.0463989
0.0477592
0.0494731
0.0518036
0.0547793
0.0497339
0.0501612
0.0506127
0.0510955
0.0515952
0.0521129
0.0526347
0.0531413
0.05363
0.0541022
0.0545563
0.0549934
0.0554196
0.0558416
0.056266
0.056703
0.0571643
0.0576636
0.0582202
0.058856
0.0596001
0.060494
0.0615893
0.0629339
0.0645638
0.0665144
0.0688487
0.0716672
0.0751102
0.0793837
0.0848002
0.0918695
0.101482
0.115377
0.137529
0.177439
0.222677
0.175107
0.138564
0.0520967
0.0516285
0.0511205
0.0505982
0.0500691
0.049529
0.0489962
0.0484778
0.0479761
0.0474959
0.0470397
0.0466068
0.0461975
0.0458118
0.0454485
0.0451085
0.0447926
0.0445024
0.04424
0.044009
0.0438124
0.0436517
0.0435371
0.0434735
0.0434609
0.0435074
0.0436223
0.0438139
0.0440911
0.0444642
0.0449452
0.0455483
0.0462926
0.0472044
0.0483254
0.04972
0.0514947
0.053898
0.0569704
0.0525539
0.0530042
0.0534799
0.0539878
0.0545125
0.0550563
0.055604
0.0561367
0.0566508
0.0571485
0.0576272
0.0580882
0.0585377
0.0589805
0.0594243
0.0598796
0.0603575
0.0608725
0.0614428
0.0620916
0.0628496
0.0637572
0.0648685
0.0662329
0.0678848
0.0698608
0.0722229
0.0750707
0.0785435
0.0828432
0.0882684
0.0952981
0.104727
0.117989
0.137837
0.167975
0.19286
0.16896
0.141077
0.0550434
0.0545481
0.0540104
0.0534567
0.0528945
0.0523202
0.0517531
0.0512009
0.0506655
0.0501525
0.0496646
0.0492014
0.0487624
0.0483475
0.0479555
0.0475874
0.0472436
0.0469257
0.0466357
0.0463771
0.0461528
0.0459653
0.0458241
0.0457346
0.0456967
0.0457176
0.0458063
0.0459714
0.0462224
0.0465707
0.0470295
0.0476155
0.0483498
0.0492621
0.0503974
0.0518247
0.0536562
0.0561267
0.0592828
0.0555252
0.0559993
0.0565
0.0570329
0.0575829
0.0581526
0.0587267
0.0592851
0.0598252
0.0603489
0.0608528
0.0613382
0.0618107
0.0622756
0.0627398
0.0632135