/*--------------------------------*- C++ -*----------------------------------*\
| =========                 |                                                 |
| \\      /  F ield         | OpenFOAM: The Open Source CFD Toolbox           |
|  \\    /   O peration     | Version:  2312                                  |
|   \\  /    A nd           | Website:  www.openfoam.com                      |
|    \\/     M anipulation  |                                                 |
\*---------------------------------------------------------------------------*/
FoamFile
{
    version     2.0;
    format      ascii;
    arch        "LSB;label=32;scalar=64";
    class       volSymmTensorField;
    location    "400";
    object      turbulenceProperties:R;
}
// * * * * * * * * * * * * * * * * * * * * * * * * * * * * * * * * * * * * * //

dimensions      [0 2 -2 0 0 0 0];

internalField   nonuniform List<symmTensor> 
10720
(
(0.0144987 0.00306873 -1.20057e-21 0.0120403 -4.48843e-20 0.0134172)
(0.0172865 0.00364566 8.0096e-22 0.0136446 5.09191e-20 0.0155753)
(0.0210786 0.00423413 1.24081e-20 0.0153257 5.24679e-20 0.0184315)
(0.0262503 0.00499591 6.0332e-20 0.0176186 4.92398e-19 0.022231)
(0.0326215 0.00571448 -2.53294e-19 0.0200522 -1.01478e-18 0.0266719)
(0.0409537 0.00622483 -3.0993e-19 0.0227818 -6.31732e-19 0.032371)
(0.0517329 0.00649513 1.12441e-19 0.026117 1.08656e-20 0.0395674)
(0.0651913 0.006181 6.25534e-20 0.0300846 9.8908e-20 0.0484254)
(0.0821901 0.00491639 1.66109e-19 0.0351309 -1.34177e-19 0.0596893)
(0.10357 0.00243289 -2.5925e-20 0.0419321 -2.60103e-20 0.0740118)
(0.130614 -0.00179553 3.01555e-18 0.0513612 1.21577e-18 0.0925366)
(0.165468 -0.00835549 -7.26382e-19 0.0647916 -5.57885e-19 0.117021)
(0.211089 -0.0181758 1.48301e-18 0.0840948 -2.22659e-18 0.1499)
(0.272353 -0.032849 7.29141e-19 0.112291 1.56447e-18 0.195176)
(0.357552 -0.0550344 1.152e-18 0.154535 -2.04239e-18 0.259668)
(0.479503 -0.0890628 4.74243e-19 0.21919 7.23074e-18 0.354038)
(0.663283 -0.143542 3.65935e-17 0.322812 1.94837e-17 0.49944)
(0.940193 -0.230774 -1.02888e-17 0.48898 1.38415e-17 0.723344)
(1.41741 -0.387143 -4.13309e-18 0.789754 -6.70825e-17 1.11644)
(2.14079 -0.639976 2.2187e-18 1.27811 -4.32594e-19 1.72766)
(3.75076 -1.21242 -6.58701e-17 2.39972 -8.95902e-17 3.10429)
(6.10066 -2.11282 1.57306e-16 4.18495 4.76826e-16 5.18195)
(13.8362 -5.12752 -2.57278e-16 10.2537 -9.31298e-16 12.1231)
(25.9904 -10.3104 4.53015e-16 21.0503 1.24261e-16 23.6454)
(27.6371 -11.6462 -2.48624e-16 24.5392 -1.19293e-17 26.1497)
(25.5046 -11.2281 2.09886e-17 24.4633 -1.28059e-15 24.9667)
(24.4007 -11.0448 2.70099e-16 24.7227 -6.42494e-17 24.5169)
(24.3333 -11.2288 1.95504e-16 25.6883 4.12418e-16 24.9736)
(24.4197 -11.4431 1.14979e-15 26.7089 5.60067e-16 25.5397)
(24.125 -11.4557 1.04819e-15 27.2768 4.51056e-15 25.6885)
(23.3975 -11.2408 -2.01191e-15 27.3113 -1.73962e-15 25.357)
(22.3237 -10.8338 -2.17666e-15 26.8601 -3.02247e-15 24.6077)
(20.8799 -10.22 -9.24747e-16 25.8518 -3.97051e-15 23.3883)
(19.0949 -9.41315 -2.96436e-15 24.2894 -5.58105e-15 21.7152)
(16.9502 -8.40502 1.07405e-15 22.1142 2.92163e-15 19.5535)
(14.5071 -7.22651 1.80061e-16 19.3665 2.16242e-15 16.9533)
(11.3438 -5.67304 -4.60051e-17 15.4782 3.64969e-18 13.4311)
(8.33018 -4.17129 -1.78664e-15 11.5014 -1.07324e-16 9.91836)
(1.8392 -0.926563 -3.59681e-16 2.78502 -1.68905e-15 2.31092)
(0.01203 0.00257344 8.65957e-22 0.0106522 -3.09846e-21 0.011395)
(0.0101308 0.00212441 -4.47493e-21 0.00934044 4.54508e-21 0.00982534)
(0.00808311 0.00164665 -2.32773e-20 0.00782727 -1.61892e-20 0.00799971)
(0.00638587 0.00123967 2.27041e-20 0.0064452 -3.24242e-20 0.0064459)
(0.00486369 0.00087918 -2.59248e-20 0.005051 -2.57565e-20 0.00497245)
(0.00355261 0.000586707 -1.2123e-19 0.00372633 1.47213e-19 0.00363917)
(0.00253012 0.000377464 3.6861e-20 0.00261694 1.23424e-19 0.00255719)
(0.00194574 0.000261404 -1.77867e-20 0.00191624 -1.59915e-19 0.00190778)
(0.00211346 0.000277939 8.97902e-20 0.00191824 2.19627e-21 0.00199814)
(0.00295785 0.000385225 -7.69161e-20 0.00247031 -2.21214e-20 0.00271152)
(0.00451445 0.000623825 7.74619e-20 0.00352085 1.86739e-19 0.00402735)
(0.00693533 0.00109498 1.82193e-19 0.00509624 -8.5301e-20 0.00603464)
(0.010512 0.00197149 -2.02508e-19 0.00732823 -5.83334e-20 0.00895546)
(0.015673 0.00349526 1.35776e-20 0.0104665 9.61922e-20 0.0131347)
(0.0229296 0.00591754 8.38272e-19 0.0148956 1.78221e-19 0.0190127)
(0.0330185 0.00952977 8.31548e-19 0.0213045 -1.7556e-19 0.0273118)
(0.04726 0.0147526 3.85358e-19 0.0308194 6.00877e-19 0.039246)
(0.0681599 0.0224734 2.84068e-19 0.0454429 6.03704e-19 0.0570866)
(0.100399 0.0344355 3.0425e-19 0.0687665 -1.71861e-19 0.0849739)
(0.152285 0.0539243 5.79609e-19 0.107412 2.5374e-20 0.130423)
(0.240272 0.0874856 -8.77708e-19 0.174649 -5.32367e-18 0.208336)
(0.393914 0.147342 -3.10469e-18 0.29558 -1.02223e-19 0.346204)
(0.682855 0.262513 2.95394e-18 0.530389 5.21403e-18 0.609276)
(1.22835 0.486479 2.13462e-18 0.992771 -5.64102e-19 1.116)
(2.39607 0.978116 7.46127e-17 2.02225 -1.51405e-17 2.22091)
(4.8035 2.01626 -1.11649e-18 4.23163 -1.16173e-17 4.54211)
(10.5254 4.53133 1.97998e-19 9.66711 7.29757e-18 10.154)
(21.265 9.36763 2.27204e-18 20.3425 -6.98019e-20 20.9242)
(29.5451 13.2906 3.31604e-19 29.4247 4.49078e-21 29.6411)
(32.6387 14.9584 3.64859e-16 33.7977 5.08656e-18 33.3657)
(33.0578 15.3972 -4.20105e-18 35.511 -2.17083e-19 34.4078)
(32.6456 15.4171 -2.64537e-17 36.2844 3.60806e-17 34.566)
(31.9228 15.2549 -2.2429e-15 36.6214 -1.86758e-16 34.3558)
(30.9818 14.9549 -4.02477e-15 36.6008 -2.58918e-16 33.8616)
(29.8496 14.5327 3.58594e-15 36.2458 3.91293e-16 33.1082)
(28.5629 14.0096 -2.69023e-17 35.6023 1.37014e-16 32.1355)
(26.9098 13.2866 1.35978e-18 34.4277 -5.27292e-16 30.7169)
(25.1172 12.4694 -1.93934e-16 32.9255 2.82919e-16 29.0664)
(20.1427 10.0654 -3.51029e-15 27.4157 1.25557e-16 23.7892)
(0.00226707 -0.000155249 -1.39698e-21 0.00189643 -4.27566e-21 0.00205172)
(0.00222406 -0.000181973 2.50756e-21 0.00191883 5.67756e-21 0.00203798)
(0.00215863 -0.000204454 -1.10588e-22 0.00194119 1.59255e-23 0.00201037)
(0.00205931 -0.00021172 5.10304e-21 0.0019265 7.58006e-22 0.00194814)
(0.00192972 -0.000206755 3.44485e-21 0.00187661 2.99354e-20 0.00185481)
(0.00178982 -0.000193311 2.25501e-20 0.00180978 3.94323e-20 0.00174787)
(0.00164015 -0.000173016 -1.11863e-20 0.00171467 1.80135e-21 0.00162238)
(0.00148395 -0.000149084 -9.35224e-21 0.00159447 -2.45554e-21 0.00148233)
(0.00133653 -0.000125537 -5.245e-20 0.001468 -5.79403e-20 0.00134398)
(0.00119891 -0.000104531 -1.7561e-20 0.00133681 -5.78511e-21 0.00120848)
(0.00107268 -8.69447e-05 -1.52979e-19 0.00120611 -1.49429e-19 0.00107993)
(0.000987017 -7.80231e-05 -1.90451e-21 0.00111434 2.61245e-20 0.00098911)
(0.000976208 -8.37157e-05 -9.65201e-20 0.0011064 2.8493e-21 0.000969182)
(0.00107581 -0.000114016 8.99757e-20 0.00122303 5.34745e-20 0.00104862)
(0.00141246 -0.000214135 -3.28029e-19 0.00159267 -9.565e-20 0.00132274)
(0.00229543 -0.000517906 1.51637e-18 0.0024494 3.67526e-19 0.00199403)
(0.00462235 -0.00138348 -2.99102e-18 0.00434254 -2.59958e-18 0.00368179)
(0.0101299 -0.0033445 -5.4125e-18 0.00824393 -2.19299e-18 0.00776927)
(0.0249988 -0.00841276 -1.15584e-17 0.0184609 4.87507e-18 0.019304)
(0.0614872 -0.0208052 2.30386e-18 0.0434062 -2.01677e-20 0.0486351)
(0.180891 -0.0622137 2.17536e-17 0.126612 3.20963e-17 0.14717)
(0.492168 -0.174184 -4.15601e-17 0.350652 -1.26529e-16 0.412111)
(1.48061 -0.54569 -2.21538e-18 1.09784 2.27715e-16 1.27753)
(4.62742 -1.78542 5.22612e-18 3.6202 -8.75292e-17 4.11966)
(8.81277 -3.54772 -0 7.29064 -0 8.08732)
(12.9113 -5.3927 -2.56026e-17 11.2779 6.07897e-16 12.1762)
(16.5435 -7.14382 -6.81621e-17 15.2653 4.6845e-17 16.0123)
(18.8557 -8.38882 -1.10605e-16 18.3713 -4.75605e-16 18.7268)
(18.8982 -8.63253 -9.73976e-16 19.4229 -2.62763e-15 19.2595)
(16.9046 -7.89516 3.8772e-16 18.2772 -8.29418e-15 17.6526)
(14.0789 -6.69055 -1.09017e-16 15.9326 5.63832e-15 15.0182)
(11.3779 -5.47731 -3.38805e-16 13.3924 7.39065e-15 12.3578)
(9.2553 -4.49797 -2.19865e-15 11.2538 4.27035e-15 10.2098)
(7.67117 -3.75335 6.48122e-15 9.56247 1.54325e-14 8.57235)
(6.47992 -3.18631 -4.13388e-16 8.2316 -2.76525e-15 7.31974)
(5.56407 -2.74339 6.23849e-15 7.14772 -3.6746e-15 6.32517)
(4.91719 -2.43217 -2.24016e-16 6.39227 4.92582e-17 5.63467)
(4.36045 -2.13694 3.17442e-15 5.51644 7.04753e-16 4.88551)
(4.49699 -2.25497 5.72201e-15 5.98244 6.56154e-15 5.37315)
(0.00227291 -0.000117567 1.62863e-21 0.00184999 5.33023e-21 0.00203577)
(0.00226157 -7.7637e-05 -1.06017e-21 0.00180466 -2.2658e-20 0.00200878)
(0.00221 -2.67193e-05 -1.44033e-20 0.0017391 -4.80015e-20 0.00195512)
(0.00211612 3.07934e-05 2.69161e-21 0.00166073 6.9068e-20 0.00187426)
(0.00197222 8.48927e-05 3.23532e-20 0.00156958 -3.04861e-20 0.00176326)
(0.00177352 0.000127801 -9.3212e-21 0.00146038 -5.07195e-20 0.00161494)
(0.00153865 0.000150826 5.11493e-20 0.00133585 -1.10761e-19 0.00143915)
(0.00131418 0.000152955 -8.77447e-20 0.0012122 -1.18884e-20 0.0012683)
(0.00111353 0.000139696 -4.79127e-20 0.00109252 1.08905e-19 0.00110891)
(0.000921924 0.000116357 -1.43849e-20 0.000968416 -5.4949e-21 0.000948604)
(0.000751498 8.77024e-05 -2.32062e-20 0.000839678 -5.31494e-20 0.000794821)
(0.000614981 6.18777e-05 4.69524e-21 0.000717194 -2.7548e-20 0.000661715)
(0.000506782 4.2146e-05 1.83313e-20 0.000605966 4.70714e-20 0.000549866)
(0.000418993 2.82119e-05 -1.5489e-20 0.000507055 -1.05437e-20 0.000455565)
(0.000346715 1.88844e-05 -8.61027e-21 0.000420698 -3.08382e-20 0.00037605)
(0.000286783 1.28386e-05 -2.89233e-20 0.000346638 -8.83089e-21 0.000309375)
(0.000236368 8.9755e-06 -4.74084e-21 0.000283086 -6.20661e-23 0.000253107)
(0.000193789 6.45643e-06 -2.73157e-22 0.000228972 -2.45944e-21 0.000205739)
(0.000156382 4.6166e-06 -2.29843e-21 0.000181427 1.65566e-21 0.000164439)
(0.000121922 3.10752e-06 3.06979e-21 0.000138142 -1.04863e-21 0.000126849)
(8.7259e-05 1.73924e-06 -1.15977e-20 9.58646e-05 8.58267e-21 8.97093e-05)
(5.24492e-05 6.6463e-07 -1.02758e-21 5.55805e-05 2.12958e-22 5.32734e-05)
(1.84809e-05 8.35054e-08 -5.01799e-24 1.88623e-05 -1.28479e-22 1.85707e-05)
(3.03599e-06 2.27634e-09 1.66512e-23 3.04589e-06 9.23973e-25 3.03793e-06)
(7.72761e-06 1.60536e-08 -9.15307e-23 7.7874e-06 7.82986e-24 7.73647e-06)
(0.000851217 0.000192922 -8.6889e-19 0.00142945 1.91068e-19 0.00091086)
(0.00451847 0.00133222 -8.03197e-20 0.00782259 -1.21557e-19 0.00474154)
(0.0372392 0.0119653 -6.55999e-21 0.0620991 -3.43225e-19 0.0383237)
(0.128092 0.0458989 -4.97555e-20 0.204225 -6.76092e-22 0.130585)
(0.256255 0.102681 2.70882e-18 0.386154 2.25592e-18 0.261143)
(0.390996 0.17064 1.84654e-19 0.554229 -1.00832e-18 0.401641)
(0.512551 0.2352 4.71377e-18 0.689727 -1.75269e-17 0.533271)
(0.614425 0.289336 2.45535e-15 0.799432 1.7652e-16 0.648434)
(0.701294 0.334889 2.30239e-15 0.897991 1.24213e-16 0.750521)
(0.778819 0.375321 -2.13821e-15 0.995063 -2.52165e-16 0.844991)
(0.856919 0.415505 2.0738e-15 1.09894 2.72104e-16 0.940201)
(0.934333 0.456124 -3.67708e-15 1.21465 -5.42775e-16 1.04031)
(1.13396 0.552247 -3.42275e-15 1.45541 -7.47044e-16 1.25442)
(1.57418 0.775665 -3.41863e-15 1.97924 -1.03672e-16 1.79201)
(0.00151784 -0.000120502 -6.03951e-22 0.00125059 -2.17619e-21 0.00139946)
(0.00147803 -0.000143656 -1.29861e-20 0.00126633 -3.06226e-20 0.00139063)
(0.00140943 -0.000159865 9.56718e-21 0.00127072 2.28695e-20 0.0013616)
(0.0013199 -0.000165124 1.32219e-20 0.00126219 2.50319e-20 0.00131711)
(0.00122892 -0.000160346 2.39572e-20 0.00125142 3.46048e-20 0.00126979)
(0.0011352 -0.000144947 -7.3685e-20 0.00123354 -1.28967e-19 0.00121757)
(0.00104698 -0.000120401 5.17491e-20 0.00120871 1.03871e-19 0.00116503)
(0.000973121 -9.03614e-05 6.91136e-20 0.00118112 6.16689e-20 0.00111757)
(0.000915121 -5.71728e-05 -3.97468e-21 0.00115183 8.36946e-21 0.0010768)
(0.000875398 -2.41352e-05 4.2218e-20 0.00112359 7.52649e-20 0.00104541)
(0.000850745 6.58738e-06 -9.18611e-20 0.00109582 -4.34635e-21 0.001021)
(0.000842036 3.35382e-05 1.25566e-19 0.00107453 1.3933e-19 0.00100687)
(0.000846814 5.60667e-05 5.94676e-20 0.0010621 2.44203e-20 0.00100264)
(0.000864102 7.53401e-05 3.01051e-20 0.00106197 -2.87533e-20 0.00101025)
(0.000878061 8.92424e-05 8.6261e-20 0.00105577 8.52337e-20 0.00101126)
(0.00086458 9.33148e-05 -2.04487e-19 0.00101488 -2.08551e-19 0.000977975)
(0.000751311 7.33802e-05 3.75134e-20 0.000850508 5.48621e-20 0.000825995)
(0.000680494 6.25864e-05 2.60346e-19 0.000754041 7.6374e-20 0.000735092)
(0.000222493 6.75651e-06 8.55453e-21 0.000229622 6.29947e-21 0.00022764)
(1.50798e-07 3.31128e-12 -1.35336e-27 1.50802e-07 -9.40729e-29 1.50801e-07)
(0.00662823 0.00332837 1.73837e-18 0.00977995 -3.83674e-18 0.008688)
(0.000374013 4.04435e-05 5.63094e-21 0.000412268 4.85498e-20 0.000397147)
(0.00324249 0.00152357 2.82328e-17 0.00599919 -5.80506e-18 0.00448578)
(0.0118076 -0.00460265 -5.5874e-18 0.00957574 -2.33143e-18 0.0103325)
(0.130849 -0.0523554 2.33686e-19 0.108948 5.91589e-19 0.117237)
(0.458058 -0.189546 -5.61658e-17 0.399032 1.60571e-17 0.422425)
(1.14239 -0.48765 1.99287e-17 1.04261 8.23323e-18 1.08352)
(2.53726 -1.11139 -2.55376e-17 2.41695 -2.11308e-18 2.46627)
(4.91406 -2.1998 -6.35484e-16 4.87022 6.49224e-16 4.88192)
(7.95487 -3.63161 -1.084e-15 8.19785 3.3512e-17 8.07155)
(10.5679 -4.91482 3.90408e-15 11.3374 -1.14993e-15 10.9604)
(11.6786 -5.52443 3.18508e-15 13.048 1.73688e-15 12.3849)
(11.1879 -5.36747 -1.54618e-16 12.9835 4.3002e-15 12.1093)
(9.8757 -4.78742 6.63703e-15 11.8337 -5.0439e-15 10.8673)
(8.45624 -4.12844 5.15969e-15 10.3847 -2.92452e-15 9.42268)
(7.19267 -3.52382 -9.57886e-15 8.9528 -3.55019e-15 8.06827)
(6.2149 -3.05349 -2.70128e-17 7.81123 -1.68899e-15 7.01444)
(5.27479 -2.5564 6.26786e-15 6.35385 -1.58426e-15 5.7902)
(5.68022 -2.8145 -1.30983e-14 7.34999 4.22412e-15 6.5421)
(0.0015522 -9.11043e-05 -2.83951e-21 0.00123878 -6.8649e-21 0.00140939)
(0.00156568 -5.92716e-05 -2.35638e-21 0.0012237 -2.58363e-21 0.00140584)
(0.0015711 -2.04299e-05 2.12362e-20 0.00121257 3.71833e-20 0.00140042)
(0.00154388 2.08074e-05 -1.27912e-20 0.00119225 -6.25965e-22 0.00137348)
(0.00148458 6.12864e-05 3.04411e-21 0.00116497 1.59627e-20 0.00132791)
(0.00138226 9.45469e-05 -4.97009e-21 0.0011207 5.04194e-20 0.00125261)
(0.0012428 0.000115289 -1.14466e-20 0.00105709 4.76729e-20 0.00114977)
(0.00108704 0.000121546 1.33478e-19 0.000979562 9.6339e-20 0.00103372)
(0.000943521 0.000117563 1.99263e-20 0.00090637 -2.61721e-20 0.000925779)
(0.000803106 0.000104287 7.13322e-20 0.000824285 9.32057e-21 0.000814298)
(0.000664137 8.4454e-05 -5.56138e-20 0.000723571 -3.73376e-20 0.000694615)
(0.00053886 6.38433e-05 -4.01954e-20 0.00061641 6.16982e-20 0.000579072)
(0.000432621 4.5775e-05 4.3387e-20 0.000514431 -2.19604e-20 0.000475864)
(0.000344876 3.11657e-05 3.57187e-20 0.000422741 -1.30457e-22 0.000387131)
(0.000274804 2.00997e-05 -2.5799e-20 0.000344661 2.48842e-20 0.000313888)
(0.000219731 1.20343e-05 -1.86478e-20 0.000280097 4.50055e-20 0.000254777)
(0.000177754 6.39067e-06 4.53046e-20 0.000228859 -2.77678e-20 0.000208692)
(0.000146505 2.47147e-06 4.22689e-20 0.000189416 -7.7193e-21 0.000173738)
(0.000124168 -3.00209e-07 1.66307e-20 0.000160366 -1.47453e-21 0.000148286)
(0.000108451 -2.41424e-06 -5.6459e-21 0.000139158 2.0892e-20 0.000130017)
(9.79625e-05 -4.16499e-06 7.99045e-20 0.000124202 9.8775e-21 0.000117436)
(9.16474e-05 -5.84957e-06 3.20342e-21 0.000113942 -1.48576e-20 0.000109335)
(8.90452e-05 -7.67578e-06 -2.59685e-22 0.000107318 -9.69871e-22 0.000105007)
(8.91715e-05 -9.44685e-06 -1.81475e-21 0.000101839 -1.06094e-20 0.000102932)
(9.23412e-05 -1.05781e-05 -1.51613e-21 9.77674e-05 7.97452e-21 0.000103494)
(9.5234e-05 -1.00467e-05 1.29231e-19 9.33033e-05 -6.63869e-21 0.000103183)
(0.000104347 -9.47636e-06 3.47379e-22 9.58622e-05 -1.00053e-23 0.000110096)
(6.26071e-05 -2.75255e-06 -4.71061e-21 5.80046e-05 2.64176e-22 6.39409e-05)
(0.000474078 -6.55474e-05 -1.02597e-21 0.000295504 -1.57608e-22 0.00050195)
(0.00325926 -0.000272186 -2.52181e-18 0.0016856 -9.41048e-20 0.0034079)
(0.00933507 0.000424188 1.7604e-17 0.00467944 7.81707e-19 0.00965407)
(0.0187835 0.00468283 -2.39392e-19 0.011265 -1.3271e-20 0.0193705)
(0.0386039 0.0154365 -2.7307e-16 0.0316806 -1.27655e-17 0.0399562)
(0.0759819 0.0342756 -3.14152e-19 0.0747633 9.44151e-18 0.0792585)
(0.130181 0.0608378 -1.19226e-18 0.139684 8.15016e-18 0.13725)
(0.196697 0.0929476 3.53802e-17 0.218827 -1.02929e-16 0.208523)
(0.267595 0.127586 -1.72796e-16 0.305698 7.10803e-16 0.286711)
(0.333496 0.154079 2.18626e-15 0.353613 8.14174e-16 0.342305)
(0.548264 0.261168 4.48565e-15 0.615205 1.75776e-15 0.593704)
(0.00128851 -9.76976e-05 -2.52605e-21 0.00106031 -4.72089e-21 0.00116908)
(0.00127314 -0.000115777 -5.50345e-21 0.00108091 -8.81845e-21 0.00117113)
(0.00124326 -0.000131401 1.05162e-20 0.00110008 1.5999e-20 0.00116414)
(0.00120671 -0.000141543 1.4804e-20 0.00111814 1.43984e-20 0.00115342)
(0.00115892 -0.000144743 1.67334e-21 0.00112689 -7.26535e-22 0.0011322)
(0.00110138 -0.000141116 -5.6794e-21 0.00112596 1.39637e-20 0.00110097)
(0.00103935 -0.000131397 1.07887e-19 0.00111479 1.08098e-19 0.00106236)
(0.000972773 -0.000116713 -1.01061e-19 0.00108965 -1.34194e-19 0.00101448)
(0.000904793 -9.88105e-05 2.82688e-20 0.00105273 7.30829e-21 0.000959838)
(0.000836921 -7.9713e-05 1.33609e-19 0.00100427 9.89766e-20 0.000899698)
(0.000769938 -6.08835e-05 1.05099e-19 0.000946101 1.06741e-19 0.000835245)
(0.000703905 -4.35107e-05 1.14002e-19 0.000879743 3.27581e-20 0.000767498)
(0.000638514 -2.83865e-05 -1.27127e-19 0.000806701 -9.63985e-20 0.000697221)
(0.000573913 -1.58318e-05 -7.97172e-20 0.000729249 -7.99701e-20 0.000625767)
(0.000509983 -5.80888e-06 8.7755e-21 0.000648905 -2.68072e-20 0.000553698)
(0.000443508 2.89928e-06 -1.95196e-19 0.000563152 1.37414e-20 0.000478792)
(0.000377662 1.02064e-05 -5.27726e-20 0.000474771 -6.68783e-20 0.000404285)
(0.000324355 1.61105e-05 -2.89762e-19 0.000400223 -2.25351e-19 0.000343724)
(0.000255385 1.6032e-05 2.18665e-20 0.000299085 -2.94264e-20 0.000266225)
(0.000148956 6.5979e-06 3.03992e-21 0.000160448 -6.93463e-21 0.000151999)
(1.9926e-05 1.12311e-07 -4.06161e-22 2.00641e-05 -4.81362e-24 1.9969e-05)
(5.33209e-05 7.07896e-07 3.19043e-22 5.39916e-05 7.05541e-23 5.35634e-05)
(0 0 -0 0 -0 0)
(0.00243917 0.00098121 -5.87779e-19 0.00291214 6.31109e-19 0.00261314)
(0.0134686 0.00626242 1.04092e-18 0.0148976 7.05346e-20 0.0137838)
(0.0298739 0.0131748 1.06674e-17 0.0294376 5.69013e-18 0.0287463)
(0.0176044 0.00717936 -7.76811e-19 0.0152352 3.20965e-19 0.0158323)
(0.00983702 0.00287326 1.26606e-18 0.00601004 8.037e-20 0.00741577)
(0.0294925 -0.0105251 3.70116e-17 0.0213209 2.25473e-18 0.0246327)
(0.252847 -0.108847 -9.95176e-18 0.234043 1.21615e-16 0.241566)
(1.06424 -0.479047 -5.33487e-16 1.06713 -5.26396e-16 1.06237)
(2.81657 -1.2997 1.99039e-15 2.97307 -1.86684e-15 2.89076)
(5.15602 -2.42452 2.17814e-15 5.68427 -2.12388e-16 5.41884)
(7.00446 -3.34438 -3.85038e-16 8.0296 -7.24197e-15 7.52216)
(7.70722 -3.72266 -5.82366e-15 9.13243 -1.7635e-15 8.42876)
(7.50777 -3.65045 6.99743e-16 9.09102 3.66387e-15 8.3032)
(7.00468 -3.4206 -9.96535e-15 8.6025 1.47823e-15 7.81061)
(6.25813 -3.01934 -6.98789e-15 7.41623 8.73452e-16 6.82166)
(6.5429 -3.21238 8.11007e-15 8.1438 -4.94799e-15 7.38585)
(0.00128954 -7.51057e-05 -1.36628e-21 0.00103296 -1.40086e-21 0.00115766)
(0.00127903 -5.12168e-05 4.87511e-21 0.00100504 2.23242e-20 0.00113892)
(0.00125241 -2.16721e-05 1.44766e-20 0.000970772 3.21498e-20 0.00111007)
(0.00121286 9.52573e-06 1.56064e-20 0.000937747 -7.62413e-21 0.00107456)
(0.0011558 3.99811e-05 -3.10066e-20 0.000903921 -2.66243e-20 0.00102992)
(0.00107627 6.60811e-05 -3.42222e-21 0.000865084 -3.80911e-20 0.000970837)
(0.000980821 8.44565e-05 -4.75866e-20 0.000822615 -4.88483e-20 0.000901573)
(0.000879003 9.33552e-05 -7.51295e-20 0.000777356 -2.77171e-21 0.000828196)
(0.000775194 9.35049e-05 -2.16017e-20 0.000727843 -1.19314e-20 0.000751976)
(0.000668447 8.578e-05 2.33823e-20 0.000668379 -1.63685e-20 0.000669062)
(0.000565377 7.27341e-05 2.31438e-20 0.000599849 5.3102e-20 0.000583176)
(0.00047446 5.81123e-05 4.35557e-20 0.000530018 -1.68953e-20 0.000502531)
(0.000398355 4.43962e-05 -3.7205e-20 0.000464231 -4.26645e-20 0.00043115)
(0.00033584 3.26781e-05 -7.02518e-21 0.000404537 1.58613e-20 0.000369554)
(0.000285193 2.33522e-05 3.38818e-20 0.000351991 -7.38596e-21 0.000317447)
(0.000244166 1.62558e-05 7.43412e-20 0.000306526 -5.30647e-21 0.000273745)
(0.000211305 1.1071e-05 -4.66377e-20 0.000268254 -1.33538e-20 0.000237765)
(0.00018506 7.34808e-06 -1.41562e-20 0.000236568 -2.06586e-20 0.000208459)
(0.000164284 4.64473e-06 -6.60144e-21 0.000210852 3.65912e-21 0.000184936)
(0.000147525 2.56366e-06 6.89402e-20 0.000189739 -2.72384e-20 0.00016581)
(0.000134023 8.48402e-07 1.24421e-20 0.000172462 -1.82247e-20 0.000150274)
(0.000122794 -7.1901e-07 -6.70333e-20 0.000157829 1.9677e-20 0.000137235)
(0.00011289 -2.26747e-06 -2.80267e-21 0.000144556 9.893e-21 0.00012555)
(0.00010263 -3.70515e-06 -1.0774e-21 0.000130416 -6.61061e-21 0.000113287)
(9.22026e-05 -4.6064e-06 1.00377e-21 0.000115835 -8.22126e-23 0.000100628)
(8.36291e-05 -4.88957e-06 -5.1249e-20 0.000103765 -1.0523e-20 8.99642e-05)
(7.72222e-05 -4.8354e-06 -9.0546e-22 9.46598e-05 1.61014e-22 8.1825e-05)
(7.26563e-05 -4.67174e-06 1.10612e-20 8.8158e-05 2.93359e-22 7.5898e-05)
(6.6905e-05 -4.2875e-06 -3.91785e-22 8.02399e-05 -9.40234e-24 6.89628e-05)
(5.91255e-05 -3.80656e-06 2.52709e-22 7.01636e-05 3.58236e-22 6.02556e-05)
(4.49023e-05 -2.80357e-06 -2.78401e-20 5.21956e-05 -1.00173e-21 4.52771e-05)
(2.86518e-05 -1.68995e-06 -6.42186e-22 3.24172e-05 -3.9902e-23 2.85943e-05)
(0.000200121 -5.4919e-05 3.67824e-21 0.000303299 -6.72425e-20 0.000184116)
(0.000394799 -4.54723e-05 1.70258e-17 0.000504672 1.53529e-18 0.000286758)
(0.00166613 0.000598185 1.09231e-18 0.00129684 1.22136e-19 0.00133042)
(0.00853375 0.00332289 -1.86984e-16 0.00672202 -3.53586e-17 0.00771213)
(0.0268742 0.0112172 1.25137e-15 0.0232488 1.83718e-16 0.0257798)
(0.0706259 0.0278947 4.81169e-17 0.0567042 -1.76444e-16 0.0643999)
(0.229845 0.104456 2.73011e-16 0.230722 -1.51771e-15 0.237451)
(0.000964183 -7.4394e-05 -3.03409e-21 0.000794143 -4.50956e-21 0.000880879)
(0.000948036 -8.78632e-05 -5.53836e-21 0.000806674 -7.48146e-21 0.000879836)
(0.000922323 -9.91031e-05 1.88299e-20 0.000818487 2.41251e-20 0.000873156)
(0.000888686 -0.000105918 -8.03295e-20 0.000827165 -1.09893e-19 0.000861433)
(0.000847358 -0.000107502 1.99371e-20 0.000830126 3.12754e-20 0.000843039)
(0.000799172 -0.000103634 4.34851e-20 0.000826518 4.52088e-20 0.000817872)
(0.000747513 -9.45868e-05 -3.71142e-20 0.000815504 -6.0839e-20 0.000787525)
(0.00069433 -8.11872e-05 -2.50182e-20 0.000796209 4.32513e-21 0.000752343)
(0.000641643 -6.4565e-05 -1.49547e-19 0.000769004 -1.41452e-19 0.000713452)
(0.000592379 -4.63119e-05 -2.09355e-20 0.000735704 -5.65166e-20 0.000673371)
(0.000547813 -2.77256e-05 4.11452e-21 0.000697763 -1.32764e-20 0.000633321)
(0.000509147 -1.00035e-05 -7.50361e-20 0.000657262 -9.53125e-20 0.000594941)
(0.00047737 5.89102e-06 3.60048e-20 0.000616749 4.31909e-20 0.000559947)
(0.000452672 1.9387e-05 -1.47926e-19 0.000578282 -7.68943e-20 0.000529345)
(0.000434923 3.0425e-05 3.23064e-20 0.000543487 1.79952e-20 0.000503896)
(0.000422119 3.85838e-05 1.41541e-19 0.000512423 1.1842e-19 0.000482215)
(0.000408279 4.36256e-05 -1.94628e-19 0.000480559 -5.53557e-20 0.000458772)
(0.000388742 4.56655e-05 -3.57172e-20 0.00044324 1.6055e-19 0.00042915)
(0.000367862 4.64276e-05 -1.22905e-20 0.000406885 -2.0836e-20 0.000399216)
(0.000332719 4.26117e-05 -1.42284e-19 0.000356502 -2.30385e-20 0.00035416)
(0.000275633 3.20669e-05 1.1791e-19 0.000286637 7.23408e-20 0.000287154)
(0.000164863 1.18347e-05 1.41301e-21 0.000167372 -2.04183e-21 0.000167806)
(1.77804e-05 1.27568e-07 3.25884e-22 1.77967e-05 9.08093e-23 1.78012e-05)
(4.80976e-06 8.22302e-09 1.35565e-23 4.8099e-06 4.52288e-24 4.81041e-06)
(0 0 -0 0 -0 0)
(0 0 0 0 -0 0)
(0.00622774 0.002582 4.09128e-19 0.00545245 -1.13248e-19 0.00589304)
(0.00783326 0.00322699 -2.40587e-19 0.00675646 -3.63469e-19 0.00732642)
(0.0177103 0.0072327 -7.7362e-18 0.0149964 -3.867e-19 0.0163717)
(0.00886673 0.00353081 4.13096e-19 0.00726625 2.34961e-20 0.0080558)
(0.022578 0.00852777 -2.61598e-18 0.0172069 1.00495e-18 0.0198244)
(0.0461031 0.0120358 -2.23989e-16 0.0251135 -1.58613e-16 0.0352661)
(0.241603 -0.0985948 -8.1793e-17 0.204961 -2.53022e-16 0.222038)
(1.27418 -0.584318 -5.45466e-15 1.32751 5.37405e-16 1.29786)
(3.15355 -1.48987 7.64631e-16 3.51975 2.51035e-15 3.33394)
(5.00442 -2.39901 -8.62508e-19 5.80651 1.3288e-19 5.40441)
(6.12672 -2.96371 -3.40307e-16 7.29466 4.54405e-15 6.71663)
(6.43237 -3.08566 1.42245e-16 7.49387 1.90081e-16 6.94718)
(6.97144 -3.40198 -1.32566e-14 8.48037 2.74719e-15 7.78213)
(0.000973466 -5.79983e-05 5.35418e-21 0.000780252 3.43698e-21 0.000878655)
(0.000975237 -4.04186e-05 -1.5077e-20 0.00076659 -2.4301e-20 0.000871922)
(0.000967263 -1.88375e-05 -8.33428e-21 0.000749905 1.41448e-20 0.000859505)
(0.000946606 4.46422e-06 4.02334e-20 0.000731287 2.95434e-20 0.000839415)
(0.000911513 2.77231e-05 -1.50156e-20 0.000710672 -7.74416e-20 0.00081142)
(0.00085816 4.83614e-05 -2.6869e-20 0.000685183 1.82332e-20 0.000771676)
(0.000791988 6.39222e-05 6.78001e-20 0.000656883 5.27797e-20 0.000724251)
(0.000720101 7.2908e-05 -2.25389e-20 0.000627121 -6.15892e-20 0.000673543)
(0.00064475 7.53646e-05 -5.42712e-20 0.000594063 -2.45323e-20 0.000619509)
(0.000566066 7.16191e-05 -4.03762e-20 0.000553813 1.57775e-20 0.000560132)
(0.000489211 6.33212e-05 4.46293e-20 0.000507017 1.69529e-21 0.000498287)
(0.000418537 5.28387e-05 -2.55261e-20 0.000456694 -2.60711e-20 0.000437774)
(0.000355884 4.20686e-05 -3.26581e-20 0.000405684 2.60632e-20 0.000380972)
(0.000301272 3.21408e-05 3.16219e-20 0.000355941 1.36041e-20 0.000328872)
(0.00025441 2.36691e-05 -4.63644e-20 0.000309161 7.73577e-21 0.000282169)
(0.000214676 1.68085e-05 -1.24429e-20 0.000266559 -3.42166e-20 0.000241161)
(0.00018147 1.14774e-05 1.38252e-20 0.000228954 1.76997e-20 0.000205931)
(0.000154125 7.42264e-06 -5.0671e-20 0.000196707 2.37597e-21 0.000176316)
(0.000131986 4.34739e-06 2.01275e-20 0.000169794 -3.61321e-22 0.000151958)
(0.000114178 1.9489e-06 -7.6717e-20 0.000147598 5.24413e-21 0.000132113)
(9.99999e-05 -8.732e-09 -1.0571e-20 0.000129479 2.88289e-21 0.000116093)
(8.86493e-05 -1.71743e-06 6.15039e-20 0.000114493 5.68579e-21 0.000103034)
(7.93352e-05 -3.28687e-06 5.89619e-20 0.000101567 -1.34947e-20 9.20009e-05)
(7.07568e-05 -4.65787e-06 -4.91576e-20 8.89128e-05 3.64401e-21 8.14992e-05)
(6.22256e-05 -5.53081e-06 -6.85964e-22 7.58556e-05 4.0979e-22 7.08384e-05)
(5.44202e-05 -5.80778e-06 -4.70991e-20 6.37347e-05 1.43645e-20 6.09833e-05)
(4.83914e-05 -5.7193e-06 -9.29602e-22 5.38814e-05 1.00818e-23 5.32193e-05)
(4.4556e-05 -5.39401e-06 -7.49875e-24 4.66695e-05 -3.92439e-22 4.79331e-05)
(4.35218e-05 -5.06206e-06 -5.47132e-23 4.27175e-05 1.10636e-23 4.57564e-05)
(4.12517e-05 -4.09785e-06 1.61608e-20 3.83527e-05 1.3381e-22 4.23696e-05)
(5.17186e-05 -5.49428e-06 7.67725e-23 4.50176e-05 -1.71984e-22 5.23178e-05)
(1.19091e-05 -3.20663e-07 2.3501e-24 1.13949e-05 -8.35682e-26 1.1891e-05)
(8.48988e-05 -1.23859e-05 -4.40839e-19 6.20961e-05 -3.30504e-20 8.21054e-05)
(0.000439128 -0.000103784 -3.84556e-18 0.000233598 -3.28427e-19 0.000396733)
(0.00112994 -0.00026191 9.53661e-20 0.000571725 9.59621e-21 0.000967443)
(0.000995329 -0.000199723 -1.84837e-17 0.00046495 -2.96427e-19 0.000789406)
(0.00149252 -0.000154409 3.329e-18 0.000594973 -2.48117e-17 0.00109599)
(0.00284685 0.000198372 1.36619e-18 0.0011179 2.69719e-19 0.00195198)
(0.0489947 0.0197042 -5.0827e-16 0.0399492 7.06061e-17 0.0465311)
(0.000790888 -6.10368e-05 5.97279e-21 0.00065171 7.00561e-21 0.000720667)
(0.000783252 -7.19174e-05 -4.50733e-21 0.000665456 -5.06951e-21 0.000723781)
(0.000768841 -8.14803e-05 1.87569e-23 0.00067951 -3.7485e-22 0.000723263)
(0.000750131 -8.80967e-05 -2.57256e-21 0.000693159 2.41125e-21 0.00072057)
(0.000725967 -9.09726e-05 5.75904e-20 0.000703296 6.08102e-20 0.000713341)
(0.000696862 -8.99692e-05 -3.6437e-20 0.000709705 -4.68124e-20 0.000701591)
(0.000664843 -8.51191e-05 -2.75312e-21 0.00071121 1.20657e-20 0.000685969)
(0.000630415 -7.68323e-05 1.24535e-19 0.000706162 1.19909e-19 0.000665792)
(0.000594641 -6.58153e-05 -2.93974e-20 0.00069436 2.12711e-21 0.000641437)
(0.000558768 -5.31294e-05 -1.40995e-19 0.000675782 -9.42812e-20 0.00061362)
(0.000523167 -3.97212e-05 4.37621e-20 0.000650568 3.66957e-20 0.000582541)
(0.000488366 -2.64975e-05 -1.16544e-19 0.000619627 -3.68757e-20 0.00054893)
(0.000454736 -1.42771e-05 -4.28151e-20 0.000584127 -1.59773e-20 0.000513598)
(0.000422333 -3.5565e-06 -7.32522e-20 0.000545256 4.10265e-20 0.000477153)
(0.000391158 5.36855e-06 6.36148e-21 0.000504248 3.52734e-21 0.000440268)
(0.000359901 1.22826e-05 5.33505e-20 0.000460634 1.19801e-20 0.000402109)
(0.000326199 1.76109e-05 7.36175e-20 0.000412286 1.08546e-19 0.000360932)
(0.000291859 2.13303e-05 2.75086e-19 0.000362127 7.6068e-20 0.000319039)
(0.000260267 2.37492e-05 -1.09993e-19 0.000315115 -5.27895e-21 0.000280475)
(0.000231651 2.47848e-05 1.00322e-19 0.000271824 4.42251e-20 0.000245592)
(0.000212617 2.60328e-05 1.54918e-20 0.000240966 -4.51973e-20 0.000221658)
(0.000191791 2.46397e-05 -1.54279e-20 0.000207688 2.80736e-20 0.000196078)
(0.000168177 2.01266e-05 -7.49005e-20 0.00017298 -4.2822e-20 0.000168571)
(6.18288e-05 2.73958e-06 3.50886e-22 6.14585e-05 -4.15157e-22 6.14865e-05)
(8.16592e-06 4.63271e-08 1.15504e-23 8.14517e-06 -2.38787e-24 8.15396e-06)
(3.80476e-06 9.79443e-09 1.34319e-23 3.79822e-06 -4.17171e-24 3.8012e-06)
(1.37456e-06 1.26236e-09 -6.01131e-25 1.37361e-06 -2.14693e-25 1.37405e-06)
(0 0 -0 0 -0 0)
(0 0 0 0 0 0)
(0.00124677 0.000400955 -1.16295e-19 0.00098836 -4.71017e-19 0.00111399)
(0.00538595 0.00202984 -5.40889e-18 0.00412033 2.23504e-18 0.00473589)
(0.0281548 0.0105992 -3.65775e-17 0.0213672 3.82998e-17 0.0246781)