/*--------------------------------*- C++ -*----------------------------------*\
| =========                 |                                                 |
| \\      /  F ield         | OpenFOAM: The Open Source CFD Toolbox           |
|  \\    /   O peration     | Version:  2312                                  |
|   \\  /    A nd           | Website:  www.openfoam.com                      |
|    \\/     M anipulation  |                                                 |
\*---------------------------------------------------------------------------*/
FoamFile
{
    version     2.0;
    format      ascii;
    arch        "LSB;label=32;scalar=64";
    class       volSymmTensorField;
    location    "400";
    object      turbulenceProperties:devReff;
}
// * * * * * * * * * * * * * * * * * * * * * * * * * * * * * * * * * * * * * //

dimensions      [0 2 -2 0 0 0 0];

internalField   nonuniform List<symmTensor> 
10720
(
(0.00163714 0.00425779 -1.66577e-21 -0.00177373 -6.2276e-20 0.000136593)
(0.00238852 0.00488002 1.07215e-21 -0.00248646 6.81595e-20 9.79401e-05)
(0.00361105 0.00546062 1.60023e-20 -0.00380828 6.76661e-20 0.000197224)
(0.00524592 0.00621487 7.50525e-20 -0.0054919 6.12538e-19 0.000245979)
(0.00742491 0.00687339 -3.04662e-19 -0.00769356 -1.22058e-18 0.000268643)
(0.0104039 0.00726187 -3.61563e-19 -0.0107954 -7.36977e-19 0.000391441)
(0.014299 0.00737458 1.27665e-19 -0.0147853 1.23368e-20 0.000486256)
(0.0191876 0.00685904 6.94154e-20 -0.0197702 1.09758e-19 0.000582585)
(0.0252391 0.00535156 1.80812e-19 -0.0259856 -1.46053e-19 0.000746563)
(0.0325645 0.00260623 -2.77722e-20 -0.0334649 -2.78636e-20 0.000900454)
(0.0413421 -0.00189799 3.18764e-18 -0.0424336 1.28515e-18 0.00109149)
(0.0519596 -0.008734 -7.59287e-19 -0.0532774 -5.83157e-19 0.00131782)
(0.0649577 -0.0188219 1.53573e-18 -0.0665509 -2.30574e-18 0.00159318)
(0.0812469 -0.0337492 7.49123e-19 -0.0832017 1.60734e-18 0.00195482)
(0.102368 -0.056169 1.17575e-18 -0.104834 -2.0845e-18 0.00246625)
(0.13053 -0.0904044 4.81387e-19 -0.133705 7.33966e-18 0.00317454)
(0.169882 -0.14506 3.69803e-17 -0.174189 1.96897e-17 0.00430664)
(0.224283 -0.232428 -1.03626e-17 -0.230163 1.39407e-17 0.00588052)
(0.310933 -0.388889 -4.15173e-18 -0.319549 -6.7385e-17 0.00861519)
(0.426452 -0.641759 2.22488e-18 -0.438627 -4.33799e-19 0.0121748)
(0.6668 -1.21418 -6.59655e-17 -0.686194 -8.972e-17 0.0193945)
(0.94555 -2.11448 1.5743e-16 -0.971668 4.77202e-16 0.026118)
(1.76568 -5.12903 -2.57353e-16 -1.81783 -9.31573e-16 0.0521534)
(2.42867 -10.3118 4.53075e-16 -2.51206 1.24277e-16 0.0833896)
(1.52859 -11.6474 -2.4865e-16 -1.5696 -1.19306e-17 0.0410191)
(0.526463 -11.2293 2.09908e-17 -0.514935 -1.28073e-15 -0.0115279)
(-0.14603 -11.0459 2.70127e-16 0.175911 -6.42561e-17 -0.0298818)
(-0.665187 -11.2299 1.95524e-16 0.69 4.1246e-16 -0.0248132)
(-1.1365 -11.4442 1.1499e-15 1.15292 5.60121e-16 -0.0164183)
(-1.5719 -11.4568 1.04829e-15 1.5802 4.511e-15 -0.00830093)
(-1.958 -11.2419 -2.0121e-15 1.95623 -1.73978e-15 0.00176614)
(-2.27366 -10.8349 -2.17687e-15 2.26315 -3.02277e-15 0.0105153)
(-2.49367 -10.221 -9.24839e-16 2.47871 -3.9709e-15 0.0149589)
(-2.6052 -9.41412 -2.96467e-15 2.58982 -5.58162e-15 0.0153833)
(-2.58935 -8.40593 1.07417e-15 2.57514 2.92194e-15 0.0142086)
(-2.43545 -7.22734 1.80081e-16 2.42444 2.16267e-15 0.0110162)
(-2.07417 -5.67376 -4.6011e-17 2.06073 3.65016e-18 0.0134423)
(-1.5867 -4.1719 -1.7869e-15 1.58498 -1.0734e-16 0.001718)
(-0.472656 -0.926841 -3.59789e-16 0.473446 -1.68956e-15 -0.000789271)
(0.000968054 0.00371302 1.24942e-21 -0.00101994 -4.47053e-21 5.18852e-05)
(0.000549693 0.00319714 -6.73457e-21 -0.000639718 6.84015e-21 9.0025e-05)
(0.000179311 0.0026111 -3.69107e-20 -0.000226377 -2.56713e-20 4.70663e-05)
(-6.70755e-05 0.00208971 3.82722e-20 3.29478e-05 -5.46573e-20 3.41277e-05)
(-0.000179256 0.00159689 -4.70884e-20 0.000160969 -4.67828e-20 1.82872e-05)
(-0.000172603 0.0011672 -2.41176e-19 0.000173 2.92867e-19 -3.96333e-07)
(-8.40071e-05 0.000835302 8.15707e-20 0.000108115 2.73128e-19 -2.41083e-05)
(5.47846e-05 0.000636923 -4.33381e-20 -1.70863e-05 -3.89641e-19 -3.76983e-05)
(0.000231363 0.000621222 2.0069e-19 -0.000204969 4.9089e-21 -2.63939e-05)
(0.000471319 0.000742216 -1.48195e-19 -0.000468029 -4.26214e-20 -3.29033e-06)
(0.000812382 0.00102678 1.27497e-19 -0.000823026 3.07361e-19 1.06437e-05)
(0.00130644 0.00156641 2.60633e-19 -0.00132443 -1.22026e-19 1.79831e-05)
(0.00202429 0.00252565 -2.5943e-19 -0.00205446 -7.47302e-20 3.01704e-05)
(0.00305566 0.00413714 1.60709e-20 -0.00310696 1.13857e-19 5.13007e-05)
(0.0044731 0.00664462 9.4127e-19 -0.00454804 2.00118e-19 7.49418e-05)
(0.00629924 0.0103378 9.02051e-19 -0.00640794 -1.90445e-19 0.000108706)
(0.00863915 0.015635 4.08408e-19 -0.0087849 6.36819e-19 0.000145755)
(0.0117402 0.0234246 2.96091e-19 -0.0119383 6.29254e-19 0.000198175)
(0.0161482 0.0354501 3.13215e-19 -0.0164166 -1.76924e-19 0.000268373)
(0.0226884 0.0549989 5.91159e-19 -0.023079 2.58796e-20 0.000390543)
(0.0329407 0.088617 -8.89058e-19 -0.0335317 -5.39252e-18 0.000590928)
(0.0490728 0.148528 -3.12969e-18 -0.0500522 -1.03046e-19 0.000979409)
(0.0757042 0.263753 2.96789e-18 -0.077482 5.23866e-18 0.00177782)
(0.116282 0.487769 2.14028e-18 -0.119918 -5.65598e-19 0.00363663)
(0.183243 0.979451 7.47145e-17 -0.191089 -1.51612e-17 0.00784628)
(0.277943 2.01763 -1.11725e-18 -0.294318 -1.16251e-17 0.0163751)
(0.410053 4.53273 1.98059e-19 -0.448528 7.29982e-18 0.038475)
(0.421168 9.36904 2.27238e-18 -0.501476 -6.98124e-20 0.080308)
(0.00812333 13.292 3.31639e-19 -0.112266 4.49126e-21 0.104143)
(-0.62875 14.9598 3.64894e-16 0.530418 5.08704e-18 0.0983316)
(-1.26785 15.3986 -4.20143e-18 1.18561 -2.17103e-19 0.0822438)
(-1.85323 15.4185 -2.64562e-17 1.78589 3.60839e-17 0.0673382)
(-2.3774 15.2563 -2.2431e-15 2.3216 -1.86775e-16 0.0557948)
(-2.83317 14.9562 -4.02514e-15 2.78627 -2.58942e-16 0.0469018)
(-3.21856 14.534 3.58627e-15 3.17823 3.9133e-16 0.040327)
(-3.53766 14.011 -2.69048e-17 3.5024 1.37027e-16 0.0352634)
(-3.77533 13.2878 1.35991e-18 3.74324 -5.27342e-16 0.0320888)
(-3.91955 12.4706 -1.93953e-16 3.88955 2.82947e-16 0.0299975)
(-3.64019 10.0665 -3.51067e-15 3.63358 1.2557e-16 0.00660863)
(0.000579433 -0.000460528 -4.14396e-21 -0.00052005 -1.26832e-20 -5.93828e-05)
(0.000492605 -0.000547355 7.5425e-21 -0.000425489 1.70775e-20 -6.71159e-05)
(0.000371416 -0.000622949 -3.36948e-22 -0.000291097 4.85231e-23 -8.03187e-05)
(0.000250519 -0.000652178 1.57193e-20 -0.000158591 2.33494e-21 -9.19289e-05)
(0.00013315 -0.00064511 1.07485e-20 -3.25567e-05 9.34031e-20 -0.000100593)
(2.31411e-05 -0.000610486 7.12145e-20 8.618e-05 1.2453e-19 -0.000109321)
(-6.029e-05 -0.000551403 -3.5651e-20 0.000177198 5.7409e-21 -0.000116908)
(-0.000116636 -0.000479008 -3.00487e-20 0.000238471 -7.88964e-21 -0.000121835)
(-0.000149303 -0.000404777 -1.69118e-19 0.000274582 -1.86821e-19 -0.000125279)
(-0.000158012 -0.000336002 -5.64478e-20 0.000285259 -1.85956e-20 -0.000127247)
(-0.000150113 -0.000278307 -4.89679e-19 0.000277009 -4.78317e-19 -0.000126896)
(-0.000132662 -0.000239949 -5.85707e-21 0.00025889 8.03423e-20 -0.000126227)
(-0.000110888 -0.000226119 -2.60705e-19 0.000240754 7.69608e-21 -0.000129866)
(-8.62536e-05 -0.000245788 1.93964e-19 0.000231114 1.15277e-19 -0.000144861)
(-4.85457e-05 -0.000344618 -5.27913e-19 0.000241476 -1.53934e-19 -0.00019293)
(6.24955e-05 -0.000658619 1.92835e-18 0.000258297 4.67381e-19 -0.000320793)
(0.000455288 -0.00154841 -3.3476e-18 0.000142116 -2.90949e-18 -0.000597404)
(0.00150252 -0.00354997 -5.74501e-18 -0.000499347 -2.32771e-18 -0.00100317)
(0.00420686 -0.00867954 -1.1925e-17 -0.00253834 5.02966e-18 -0.00166852)
(0.0104862 -0.0211587 2.34301e-18 -0.00790196 -2.05104e-20 -0.00258424)
(0.0295549 -0.0626843 2.19182e-17 -0.0251344 3.2339e-17 -0.00442049)
(0.0741186 -0.1748 -4.17069e-17 -0.0678976 -1.26976e-16 -0.006221)
(0.195561 -0.546457 -2.2185e-18 -0.18775 2.28035e-16 -0.00781144)
(0.505242 -1.78629 5.22867e-18 -0.502474 -8.75719e-17 -0.00276861)
(0.749382 -3.54862 -0 -0.773134 -0 0.0237527)
(0.789647 -5.39356 -2.56066e-17 -0.844071 6.07993e-16 0.0544237)
(0.603215 -7.1446 -6.81695e-17 -0.675136 4.685e-17 0.0719213)
(0.204405 -8.3895 -1.10614e-16 -0.279966 -4.75643e-16 0.0755612)
(-0.295319 -8.63311 -9.74042e-16 0.229359 -2.62781e-15 0.0659604)
(-0.70689 -7.89565 3.87744e-16 0.665735 -8.29469e-15 0.0411557)
(-0.931084 -6.69095 -1.09024e-16 0.922755 5.63865e-15 0.00832848)
(-0.9982 -5.47763 -3.38825e-16 1.01641 7.39109e-15 -0.0182114)
(-0.98441 -4.49824 -2.19878e-15 1.01423 4.2706e-15 -0.0298178)
(-0.930882 -3.75358 6.48161e-15 0.960535 1.54335e-14 -0.0296528)
(-0.863888 -3.18651 -4.13414e-16 0.887905 -2.76543e-15 -0.0240166)
(-0.781632 -2.74357 6.23889e-15 0.802119 -3.67484e-15 -0.0204872)
(-0.730906 -2.43234 -2.24031e-16 0.744278 4.92615e-17 -0.0133717)
(-0.560391 -2.13709 3.17465e-15 0.595681 7.04804e-16 -0.0352898)
(-0.787262 -2.25513 5.72242e-15 0.6983 6.56201e-15 0.0889621)
(0.000645655 -0.000345009 4.77935e-21 -0.000595427 1.5642e-20 -5.02281e-05)
(0.00068442 -0.000224612 -3.06717e-21 -0.00063747 -6.5552e-20 -4.69501e-05)
(0.000691694 -7.6394e-05 -4.11809e-20 -0.000654663 -1.37243e-19 -3.70303e-05)
(0.000654248 8.66814e-05 7.57671e-21 -0.000627664 1.94422e-19 -2.65842e-05)
(0.000565078 0.000235302 8.9675e-20 -0.000550956 -8.45e-20 -1.41214e-05)
(0.000429275 0.000348908 -2.54478e-20 -0.000425618 -1.38469e-19 -3.65725e-06)
(0.000271226 0.00040598 1.37679e-19 -0.00027464 -2.98138e-19 3.41368e-06)
(0.000131121 0.000406958 -2.33458e-19 -0.000140194 -3.16308e-20 9.07275e-06)
(2.28717e-05 0.000374119 -1.28315e-19 -3.33812e-05 2.91659e-19 1.05095e-05)
(-6.63164e-05 0.000316361 -3.9111e-20 6.00914e-05 -1.494e-20 6.22505e-06)
(-0.000121768 0.000243629 -6.44646e-20 0.000123188 -1.47644e-19 -1.42017e-06)
(-0.000141757 0.000176672 1.34058e-20 0.00015008 -7.86545e-20 -8.32292e-06)
(-0.000139971 0.000124397 5.41063e-20 0.000152778 1.38935e-19 -1.28069e-05)
(-0.00012757 8.66285e-05 -4.75612e-20 0.000142839 -3.2376e-20 -1.52692e-05)
(-0.000111044 6.08897e-05 -2.77625e-20 0.000127503 -9.9433e-20 -1.64583e-05)
(-9.41909e-05 4.40024e-05 -9.913e-20 0.000110951 -3.02664e-20 -1.67605e-05)
(-7.86826e-05 3.33875e-05 -1.76352e-20 9.51006e-05 -2.30876e-22 -1.6418e-05)
(-6.53908e-05 2.68724e-05 -1.13691e-21 8.10452e-05 -1.02365e-20 -1.56544e-05)
(-5.43344e-05 2.27331e-05 -1.13179e-20 6.89939e-05 8.15284e-21 -1.46595e-05)
(-4.52858e-05 1.99641e-05 1.97217e-20 5.89191e-05 -6.73684e-21 -1.36333e-05)
(-3.79975e-05 1.79326e-05 -1.19579e-19 5.07309e-05 8.84922e-20 -1.27334e-05)
(-3.26724e-05 1.64692e-05 -2.5463e-20 4.49201e-05 5.27697e-21 -1.22477e-05)
(-2.91895e-05 1.55185e-05 -9.32538e-22 4.16893e-05 -2.38763e-20 -1.24998e-05)
(-2.68697e-05 1.54958e-05 1.1335e-19 4.05156e-05 6.28979e-21 -1.36459e-05)
(-2.46032e-05 1.72629e-05 -9.84259e-20 3.96876e-05 8.4197e-21 -1.50844e-05)
(-0.000235313 0.000213507 -9.61599e-19 0.000404619 2.11455e-19 -0.000169306)
(-0.0011975 0.0013569 -8.18072e-20 0.00216781 -1.23808e-19 -0.000970303)
(-0.00866896 0.0119941 -6.57577e-21 0.0162508 -3.44051e-19 -0.00758181)
(-0.026227 0.0459314 -4.97908e-20 0.0499595 -6.76571e-22 -0.0237326)
(-0.0449443 0.102717 2.70976e-18 0.0849991 2.25671e-18 -0.0400549)
(-0.0579723 0.170679 1.84697e-19 0.105298 -1.00855e-18 -0.0473254)
(-0.0659771 0.235243 4.71462e-18 0.111231 -1.75301e-17 -0.0452536)
(-0.0730169 0.289382 2.45575e-15 0.11202 1.76549e-16 -0.0390027)
(-0.0819869 0.33494 2.30275e-15 0.11474 1.24232e-16 -0.032753)
(-0.0941524 0.375376 -2.13852e-15 0.122123 -2.52202e-16 -0.027971)
(-0.108448 0.415564 2.0741e-15 0.133603 2.72143e-16 -0.0251549)
(-0.128784 0.456188 -3.6776e-15 0.151572 -5.42851e-16 -0.0227879)
(-0.147321 0.55232 -3.4232e-15 0.174169 -7.47143e-16 -0.0268478)
(-0.207652 0.775764 -3.41906e-15 0.197452 -1.03685e-16 0.0102001)
(0.000333682 -0.000312807 -1.56778e-21 -0.000360069 -5.64912e-21 2.63877e-05)
(0.00025836 -0.000372282 -3.36531e-20 -0.000290235 -7.93575e-20 3.18749e-05)
(0.000160851 -0.000413559 2.47496e-20 -0.000197977 5.91618e-20 3.71262e-05)
(5.20709e-05 -0.000426362 3.41401e-20 -9.69441e-05 6.46343e-20 4.48732e-05)
(-5.44252e-05 -0.000413077 6.17179e-20 3.54527e-06 8.91477e-20 5.08799e-05)
(-0.000154783 -0.000372457 -1.89342e-19 9.79076e-05 -3.31395e-19 5.68754e-05)
(-0.000238945 -0.00030849 1.3259e-19 0.000175434 2.66135e-19 6.3511e-05)
(-0.000299999 -0.000230744 1.76486e-19 0.000231132 1.57476e-19 6.8867e-05)
(-0.000337765 -0.000145421 -1.01098e-20 0.000264304 2.1288e-20 7.34607e-05)
(-0.000352964 -6.1109e-05 1.06894e-19 0.000275454 1.90567e-19 7.75099e-05)
(-0.000348657 1.65897e-05 -2.31344e-19 0.000268535 -1.09459e-20 8.01223e-05)
(-0.00033138 8.39145e-05 3.14174e-19 0.000250345 3.48612e-19 8.10345e-05)
(-0.000307329 0.000139292 1.47741e-19 0.000227516 6.06695e-20 7.98134e-05)
(-0.000281363 0.000184858 7.38676e-20 0.000204141 -7.05507e-20 7.72224e-05)
(-0.000254047 0.000218761 2.11453e-19 0.000181572 2.08935e-19 7.24753e-05)
(-0.000223624 0.000237399 -5.20228e-19 0.000158762 -5.30567e-19 6.48615e-05)
(-0.000180063 0.000227966 1.1654e-19 0.000128108 1.70437e-19 5.19556e-05)
(-0.000152416 0.000223321 9.28966e-19 0.000110014 2.72518e-19 4.24015e-05)
(-0.00010184 0.000168171 2.12924e-19 7.55833e-05 1.56795e-19 2.62568e-05)
(-8.50594e-05 0.000153319 -6.26634e-20 6.5793e-05 -4.35577e-21 1.92664e-05)
(-0.00180531 0.00345893 1.80656e-18 0.00147005 -3.98725e-18 0.000335261)
(-6.34791e-05 0.000125463 1.74681e-20 5.5193e-05 1.5061e-19 8.28605e-06)
(-0.00134237 0.0015339 2.84243e-17 0.00143302 -5.84444e-18 -9.06537e-05)
(0.0012592 -0.00469034 -5.69386e-18 -0.00101518 -2.37585e-18 -0.000244013)
(0.0118786 -0.0525364 2.34494e-19 -0.010098 5.93635e-19 -0.0017806)
(0.0315955 -0.189802 -5.62416e-17 -0.0275099 1.60788e-17 -0.00408561)
(0.0529152 -0.487965 1.99416e-17 -0.0469306 8.23855e-18 -0.00598459)
(0.0637859 -1.11175 -2.55458e-17 -0.0565592 -2.11376e-18 -0.0072267)
(0.0253311 -2.20018 -6.35595e-16 -0.0185194 6.49337e-16 -0.00681168)
(-0.119897 -3.63199 -1.08412e-15 0.123108 3.35155e-17 -0.0032103)
(-0.387322 -4.91519 3.90438e-15 0.38215 -1.15002e-15 0.00517197)
(-0.69195 -5.52476 3.18527e-15 0.67755 1.73699e-15 0.0143999)
(-0.905721 -5.36776 -1.54626e-16 0.889994 4.30043e-15 0.0157272)
(-0.983272 -4.78766 6.63736e-15 0.974878 -5.04416e-15 0.00839388)
(-0.965012 -4.12864 5.15995e-15 0.96354 -2.92467e-15 0.00147153)
(-0.878618 -3.524 -9.57932e-15 0.881598 -3.55036e-15 -0.00297983)
(-0.798665 -3.05364 -2.70141e-17 0.797744 -1.68907e-15 0.000920849)
(-0.531517 -2.55653 6.26817e-15 0.547598 -1.58434e-15 -0.0160812)
(-0.843927 -2.81464 -1.30989e-14 0.825926 4.22432e-15 0.0180011)
(0.000395295 -0.000236804 -7.38061e-21 -0.000419381 -1.78436e-20 2.40862e-05)
(0.000435596 -0.000154352 -6.13633e-21 -0.000454967 -6.72812e-21 1.93711e-05)
(0.000460048 -5.32791e-05 5.53817e-20 -0.000474973 9.69699e-20 1.49256e-05)
(0.000454763 5.438e-05 -3.34298e-20 -0.000464206 -1.63595e-21 9.44308e-06)
(0.000415687 0.000160468 7.97049e-21 -0.000421151 4.17958e-20 5.46415e-06)
(0.000342124 0.00024805 -1.30394e-20 -0.000344105 1.32279e-19 1.98093e-06)
(0.000244197 0.00030301 -3.00845e-20 -0.00024389 1.25297e-19 -3.06869e-07)
(0.00014106 0.000319908 3.51311e-19 -0.000141807 2.53563e-19 7.46279e-07)
(4.81366e-05 0.000309274 5.24202e-20 -4.95975e-05 -6.88513e-20 1.46092e-06)
(-2.83438e-05 0.000273934 1.87371e-19 2.72884e-05 2.44827e-20 1.05543e-06)
(-7.85705e-05 0.000221402 -1.45795e-19 7.72413e-05 -9.7883e-20 1.32924e-06)
(-0.00010266 0.000166968 -1.05122e-19 0.000100154 1.61358e-19 2.50593e-06)
(-0.000108698 0.000119366 1.13139e-19 0.000104634 -5.72654e-20 4.06424e-06)
(-0.000104073 8.10064e-05 9.28408e-20 9.83161e-05 -3.39087e-22 5.7573e-06)
(-9.40452e-05 5.20542e-05 -6.68143e-20 8.68706e-05 6.44452e-20 7.17463e-06)
(-8.20395e-05 3.10428e-05 -4.81025e-20 7.36757e-05 1.16093e-19 8.36379e-06)
(-7.02287e-05 1.64113e-05 1.16343e-19 6.10086e-05 -7.13082e-20 9.22009e-06)
(-5.97403e-05 6.31466e-06 1.07998e-19 4.98982e-05 -1.9723e-20 9.84219e-06)
(-5.10626e-05 -7.6246e-07 4.22381e-20 4.08714e-05 -3.74497e-21 1.01913e-05)
(-4.39373e-05 -6.0878e-06 -1.42368e-20 3.34927e-05 5.26817e-20 1.04446e-05)
(-3.80777e-05 -1.04081e-05 1.99677e-19 2.74927e-05 2.46833e-20 1.0585e-05)
(-3.29294e-05 -1.44532e-05 7.91506e-21 2.21557e-05 -3.67105e-20 1.07737e-05)
(-2.77599e-05 -1.86723e-05 -6.31715e-22 1.66897e-05 -2.35933e-21 1.10702e-05)
(-2.10892e-05 -2.26159e-05 -4.34454e-21 9.23585e-06 -2.53991e-20 1.18534e-05)
(-1.29581e-05 -2.48038e-05 -3.55506e-21 -2.34579e-07 1.86989e-20 1.31927e-05)
(-4.80904e-06 -2.40849e-05 3.09805e-19 -9.43756e-06 -1.59149e-20 1.42466e-05)
(2.16952e-06 -2.25522e-05 8.26707e-22 -1.80224e-05 -2.3811e-23 1.58529e-05)
(5.47538e-06 -1.38325e-05 -2.36724e-20 -1.76537e-05 1.32757e-21 1.21783e-05)
(5.62367e-05 -7.33796e-05 -1.14856e-21 -0.000143675 -1.7644e-22 8.74383e-05)
(0.000481015 -0.00027563 -2.55372e-18 -0.00111255 -9.52954e-20 0.000631535)
(0.00145033 0.000425594 1.76624e-17 -0.00322073 7.84298e-19 0.00177039)
(0.00231358 0.00468904 -2.3971e-19 -0.00521489 -1.32886e-20 0.00290131)
(0.00185831 0.0154473 -2.73262e-16 -0.00506983 -1.27744e-17 0.00321152)
(-0.000686294 0.0342909 -3.14292e-19 -0.00190547 9.44572e-18 0.00259177)
(-0.0055258 0.0608574 -1.19264e-18 0.0039804 8.15278e-18 0.0015454)
(-0.0113217 0.0929711 3.53891e-17 0.0108144 -1.02955e-16 0.000507267)
(-0.0190773 0.127613 -1.72833e-16 0.0190342 7.10955e-16 4.31462e-05)
(-0.00964373 0.154108 2.18667e-15 0.0104766 8.14325e-16 -0.000832877)
(-0.0374662 0.26121 4.48636e-15 0.0294853 1.75803e-15 0.00798085)
(0.00030628 -0.000258223 -6.67656e-21 -0.000296876 -1.24777e-20 -9.40391e-06)
(0.000259298 -0.000306082 -1.45496e-20 -0.000248912 -2.33136e-20 -1.03863e-05)
(0.000195911 -0.000347409 2.78036e-20 -0.000182639 4.22996e-20 -1.32723e-05)
(0.000125025 -0.000374211 3.91388e-20 -0.000109147 3.80665e-20 -1.5878e-05)
(5.1775e-05 -0.000382634 4.42355e-21 -3.28947e-05 -1.92062e-21 -1.88803e-05)
(-2.12929e-05 -0.000372943 -1.50096e-20 4.36687e-05 3.69036e-20 -2.23758e-05)
(-8.66743e-05 -0.000347085 2.84985e-19 0.000112589 2.85541e-19 -2.59148e-05)
(-0.000139539 -0.000308085 -2.66769e-19 0.000168993 -3.54231e-19 -2.94546e-05)
(-0.000178415 -0.000260562 7.45446e-20 0.00021168 1.92719e-20 -3.32643e-05)
(-0.000202004 -0.000209912 3.51839e-19 0.000238693 2.6064e-19 -3.6689e-05)
(-0.000211574 -0.000160037 2.76261e-19 0.000251484 2.80576e-19 -3.99103e-05)
(-0.000209291 -0.000114101 2.98953e-19 0.00025182 8.59037e-20 -4.25286e-05)
(-0.000197728 -7.42122e-05 -3.32354e-19 0.000241972 -2.52019e-19 -4.42448e-05)
(-0.000179864 -4.12311e-05 -2.0761e-19 0.000224682 -2.08268e-19 -4.48184e-05)
(-0.000157744 -1.50514e-05 2.27382e-20 0.000202218 -6.94602e-20 -4.44733e-05)
(-0.000133088 7.47178e-06 -5.03044e-19 0.000175247 3.54132e-20 -4.21588e-05)
(-0.00010758 2.66219e-05 -1.37649e-19 0.000145716 -1.74442e-19 -3.81359e-05)
(-8.49799e-05 4.31265e-05 -7.75667e-19 0.000118111 -6.03246e-19 -3.31311e-05)
(-6.1708e-05 5.44163e-05 7.42197e-20 8.66203e-05 -9.98798e-20 -2.49123e-05)
(-4.31926e-05 5.88173e-05 2.70995e-20 5.9254e-05 -6.18191e-20 -1.60614e-05)
(-3.80982e-05 7.09302e-05 -2.56513e-19 4.90778e-05 -3.04006e-21 -1.09796e-05)
(-4.03489e-05 9.38395e-05 4.22927e-20 4.85549e-05 9.35273e-21 -8.206e-06)
(-3.74305e-05 0.000112358 -2.13611e-19 4.35006e-05 -4.34868e-20 -6.0701e-06)
(-0.000241282 0.00109787 -6.5766e-19 0.000287918 7.06141e-19 -4.66351e-05)
(-0.000591019 0.00636623 1.05818e-18 0.000861619 7.17039e-20 -0.0002706)
(0.000524504 0.0132557 1.0733e-17 8.55304e-05 5.72507e-18 -0.000610035)
(0.00139051 0.00723168 -7.82471e-19 -0.000995944 3.23304e-19 -0.00039457)
(0.00209505 0.00289024 1.27354e-18 -0.00175454 8.08449e-20 -0.000340511)
(0.00435521 -0.0105529 3.71091e-17 -0.00383784 2.26067e-18 -0.000517374)
(0.010036 -0.108927 -9.95912e-18 -0.00878236 1.21705e-16 -0.0012536)
(-0.000340436 -0.479181 -5.33636e-16 0.0025477 -5.26543e-16 -0.00220726)
(-0.0769076 -1.29988 1.99066e-15 0.0796166 -1.8671e-15 -0.00270896)
(-0.263711 -2.42473 2.17833e-15 0.26458 -2.12406e-16 -0.000869423)
(-0.514312 -3.34458 -3.85062e-16 0.510891 -7.24242e-15 0.00342114)
(-0.715623 -3.72285 -5.82396e-15 0.709661 -1.7636e-15 0.0059623)
(-0.792928 -3.65062 6.99776e-16 0.790393 3.66404e-15 0.00253476)
(-0.801285 -3.42075 -9.96578e-15 0.796602 1.47829e-15 0.00468251)
(-0.5739 -3.01947 -6.98818e-15 0.584246 8.73488e-16 -0.0103457)
(-0.81465 -3.21251 8.11039e-15 0.786312 -4.94818e-15 0.0283378)
(0.000342224 -0.000198497 -3.61093e-21 -0.000335899 -3.70234e-21 -6.32499e-06)
(0.000364714 -0.000135328 1.28813e-20 -0.000359228 5.89864e-20 -5.48567e-06)
(0.000373312 -5.72451e-05 3.82387e-20 -0.000370622 8.49211e-20 -2.69012e-06)
(0.00036393 2.51558e-05 4.12138e-20 -0.00036261 -2.0134e-20 -1.32003e-06)
(0.000332411 0.000105543 -8.18516e-20 -0.000332513 -7.02831e-20 1.02044e-07)
(0.000278549 0.000174405 -9.03213e-21 -0.000278829 -1.00532e-19 2.79873e-07)
(0.000208874 0.000222873 -1.25577e-19 -0.000208618 -1.28906e-19 -2.56142e-07)
(0.000134091 0.000246333 -1.98241e-19 -0.000134121 -7.31361e-21 2.99348e-08)
(6.20829e-05 0.000246781 -5.70119e-20 -6.28876e-05 -3.14897e-20 8.04687e-07)
(-4.81555e-07 0.000226456 6.17283e-20 -6.61536e-07 -4.32123e-20 1.14309e-06)
(-4.60145e-05 0.000192083 6.11205e-20 4.50227e-05 1.40237e-19 9.91795e-07)
(-7.36466e-05 0.000153527 1.1507e-19 7.31322e-05 -4.46359e-20 5.14413e-07)
(-8.69238e-05 0.000117332 -9.83267e-20 8.71757e-05 -1.12755e-19 -2.51858e-07)
(-9.02498e-05 8.63931e-05 -1.85729e-20 9.13694e-05 4.19335e-20 -1.1196e-06)
(-8.73193e-05 6.17587e-05 8.9606e-20 8.93387e-05 -1.95334e-20 -2.01938e-06)
(-8.10776e-05 4.30063e-05 1.96677e-19 8.39015e-05 -1.40388e-20 -2.82387e-06)
(-7.35834e-05 2.93006e-05 -1.23431e-19 7.71376e-05 -3.5342e-20 -3.55423e-06)
(-6.6111e-05 1.94554e-05 -3.74812e-20 7.02675e-05 -5.46974e-20 -4.15646e-06)
(-5.93561e-05 1.23042e-05 -1.74876e-20 6.40056e-05 9.69323e-21 -4.64949e-06)
(-5.34503e-05 6.79482e-06 1.82722e-19 5.8436e-05 -7.21939e-20 -4.9857e-06)
(-4.83435e-05 2.24988e-06 3.29953e-20 5.35919e-05 -4.83301e-20 -5.24841e-06)
(-4.37598e-05 -1.90787e-06 -1.77871e-19 4.92024e-05 5.22122e-20 -5.44264e-06)
(-3.92321e-05 -6.0209e-06 -7.44202e-21 4.48497e-05 2.62692e-20 -5.61761e-06)
(-3.40472e-05 -9.84477e-06 -2.8627e-21 3.97791e-05 -1.75647e-20 -5.73185e-06)
(-2.84136e-05 -1.2248e-05 2.66893e-21 3.44236e-05 -2.18596e-22 -6.00997e-06)
(-2.34555e-05 -1.29978e-05 -1.36234e-19 3.00707e-05 -2.7973e-20 -6.61513e-06)
(-1.95444e-05 -1.28635e-05 -2.40877e-21 2.68443e-05 4.28342e-22 -7.29991e-06)
(-1.65195e-05 -1.23523e-05 2.92463e-20 2.44677e-05 7.75654e-22 -7.94825e-06)
(-1.36841e-05 -1.14347e-05 -1.04489e-21 2.188e-05 -2.50759e-23 -8.19595e-06)
(-1.08695e-05 -1.02009e-05 6.77218e-22 1.87106e-05 9.6001e-22 -7.84111e-06)
(-7.46445e-06 -8.18723e-06 -8.13012e-20 1.38341e-05 -2.92535e-21 -6.3697e-06)
(-4.20982e-06 -5.75607e-06 -2.18732e-21 8.61533e-06 -1.35908e-22 -4.4055e-06)
(-3.03411e-05 -5.73449e-05 3.84072e-21 7.73946e-05 -7.02129e-20 -4.70536e-05)
(-6.16564e-07 -4.59075e-05 1.71888e-17 0.000110308 1.54999e-18 -0.000109692)
(0.000235771 0.000600152 1.09591e-18 -0.00013473 1.22538e-19 -0.00010104)
(0.000879061 0.00332772 -1.87256e-16 -0.000935305 -3.541e-17 5.62442e-05)
(0.00157449 0.0112258 1.25233e-15 -0.00205368 1.83858e-16 0.000479189)
(0.006719 0.0279075 4.81389e-17 -0.00720911 -1.76525e-16 0.000490113)
(-0.00282813 0.104483 2.73081e-16 -0.00195083 -1.5181e-15 0.00477896)
(0.000222634 -0.000196128 -7.99889e-21 -0.000225649 -1.18887e-20 3.01561e-06)
(0.000184148 -0.000231624 -1.46002e-20 -0.000188508 -1.97226e-20 4.35982e-06)
(0.000134444 -0.000261247 4.96378e-20 -0.000139278 6.35966e-20 4.83416e-06)
(7.79988e-05 -0.000279186 -2.11739e-19 -8.41634e-05 -2.89664e-19 6.16453e-06)
(1.89322e-05 -0.000283319 5.25435e-20 -2.6481e-05 8.24251e-20 7.54882e-06)
(-4.0442e-05 -0.00027307 1.1458e-19 3.16121e-05 1.19122e-19 8.82989e-06)
(-9.48348e-05 -0.000249163 -9.77671e-20 8.42686e-05 -1.60264e-19 1.05661e-05)
(-0.000140347 -0.000213788 -6.58798e-20 0.000127929 1.13892e-20 1.2418e-05)
(-0.00017474 -0.000169936 -3.9361e-19 0.000160477 -3.72304e-19 1.42627e-05)
(-0.000196679 -0.000121817 -5.50682e-20 0.000180319 -1.4866e-19 1.63605e-05)
(-0.000206279 -7.28691e-05 1.08139e-20 0.000187824 -3.48933e-20 1.84546e-05)
(-0.000204704 -2.62634e-05 -1.97002e-19 0.000184162 -2.50236e-19 2.05422e-05)
(-0.000193971 1.54449e-05 9.43963e-20 0.000171446 1.13237e-19 2.25255e-05)
(-0.000176465 5.07377e-05 -3.87138e-19 0.000152269 -2.0124e-19 2.41962e-05)
(-0.000154504 7.94332e-05 8.4345e-20 0.000128935 4.69817e-20 2.55694e-05)
(-0.000130522 0.000100453 3.68503e-19 0.000104584 3.08307e-19 2.5938e-05)
(-0.000106109 0.000113113 -5.04633e-19 8.13e-05 -1.43527e-19 2.48094e-05)
(-8.1849e-05 0.00011815 -9.24108e-20 5.91515e-05 4.15389e-19 2.26975e-05)
(-5.95895e-05 0.000117933 -3.12197e-20 3.95354e-05 -5.29265e-20 2.00541e-05)
(-3.90725e-05 0.000110449 -3.68798e-19 2.25704e-05 -5.97152e-20 1.65021e-05)
(-2.24655e-05 9.59449e-05 3.52789e-19 1.04597e-05 2.16445e-19 1.20058e-05)
(-1.15647e-05 7.53196e-05 8.99278e-21 4.40004e-06 -1.29948e-20 7.16468e-06)
(-6.7676e-06 6.9886e-05 1.7853e-19 2.13067e-06 4.97483e-20 4.63693e-06)
(-2.52149e-06 7.98493e-05 1.31639e-19 -1.21982e-06 4.39192e-20 3.74132e-06)
(3.77445e-06 8.69976e-05 -1.27545e-20 -6.75269e-06 -1.20145e-21 2.97824e-06)
(9.47225e-06 8.92045e-05 1.37773e-21 -1.15705e-05 -4.9958e-21 2.0983e-06)
(0.000382768 0.00267112 4.23249e-19 -0.000419283 -1.17157e-19 3.65149e-05)
(0.000542338 0.00331537 -2.47176e-19 -0.000563957 -3.73424e-19 2.16187e-05)
(0.00136667 0.00731756 -7.82697e-18 -0.00137906 -3.91237e-19 1.23905e-05)
(0.000820697 0.00360503 4.21779e-19 -0.000813425 2.399e-20 -7.27213e-06)
(0.0027247 0.0085796 -2.63188e-18 -0.00267907 1.01106e-18 -4.56252e-05)
(0.0106221 0.0120507 -2.24267e-16 -0.0103937 -1.58811e-16 -0.000228388)
(0.0187419 -0.0986281 -8.18206e-17 -0.0179127 -2.53108e-16 -0.000829243)
(-0.0256715 -0.5844 -5.45543e-15 0.0276599 5.37481e-16 -0.00198834)
(-0.182209 -1.48999 7.64692e-16 0.184019 2.51055e-15 -0.00180964)
(-0.400713 -2.39915 -8.62557e-19 0.40142 1.32888e-19 -0.00070664)
(-0.585976 -2.96385 -3.40322e-16 0.582012 4.54426e-15 0.00396444)
(-0.525454 -3.08578 1.42251e-16 0.536085 1.90088e-16 -0.0106309)
(-0.773237 -3.4021 -1.32571e-14 0.735748 2.74729e-15 0.037489)
(0.000253108 -0.000152903 1.41154e-20 -0.000256266 9.06101e-21 3.15744e-06)
(0.000274184 -0.000106572 -3.97534e-20 -0.000275956 -6.40744e-20 1.77281e-06)
(0.000285724 -4.96652e-05 -2.19734e-20 -0.000287343 3.7293e-20 1.61917e-06)
(0.000283464 1.17712e-05 1.06087e-19 -0.000284288 7.78999e-20 8.23688e-07)
(0.000264476 7.30935e-05 -3.95896e-20 -0.000265052 -2.04179e-19 5.76419e-07)
(0.000228057 0.000127523 -7.08503e-20 -0.000228065 4.80787e-20 8.48518e-09)
(0.00017833 0.000168591 1.78819e-19 -0.000178004 1.39204e-19 -3.25332e-07)
(0.000122699 0.000192328 -5.94566e-20 -0.00012258 -1.6247e-19 -1.19068e-07)
(6.67712e-05 0.00019883 -1.4318e-19 -6.6951e-05 -6.4722e-20 1.79781e-07)
(1.59934e-05 0.000188953 -1.06525e-19 -1.6333e-05 4.16258e-20 3.39581e-07)
(-2.36406e-05 0.000167061 1.17746e-19 2.33371e-05 4.47269e-21 3.03437e-07)
(-5.04749e-05 0.000139406 -6.73462e-20 5.01957e-05 -6.87842e-20 2.79223e-07)
(-6.58569e-05 0.000110987 -8.61599e-20 6.55264e-05 6.8761e-20 3.30485e-07)
(-7.23439e-05 8.47906e-05 8.34215e-20 7.18771e-05 3.58889e-20 4.6676e-07)
(-7.25481e-05 6.24352e-05 -1.22302e-19 7.18744e-05 2.04057e-20 6.7372e-07)
(-6.88982e-05 4.43326e-05 -3.28184e-20 6.79432e-05 -9.02464e-20 9.54974e-07)
(-6.32425e-05 3.0267e-05 3.64582e-20 6.19784e-05 4.66756e-20 1.26412e-06)
(-5.69267e-05 1.95705e-05 -1.33599e-19 5.53454e-05 6.26448e-21 1.58136e-06)
(-5.07691e-05 1.14598e-05 5.30564e-20 4.88922e-05 -9.52445e-22 1.87695e-06)
(-4.5112e-05 5.13602e-06 -2.02176e-19 4.29596e-05 1.38201e-20 2.15232e-06)
(-4.00221e-05 -2.30054e-08 -2.78505e-20 3.7644e-05 7.59528e-21 2.37814e-06)
(-3.53181e-05 -4.52337e-06 1.61989e-19 3.27491e-05 1.49752e-20 2.56901e-06)
(-3.06274e-05 -8.65395e-06 1.5524e-19 2.79075e-05 -3.553e-20 2.71989e-06)
(-2.53523e-05 -1.22589e-05 -1.29376e-19 2.2432e-05 9.59056e-21 2.92031e-06)
(-1.95036e-05 -1.45491e-05 -1.80447e-21 1.63509e-05 1.07798e-21 3.15276e-06)
(-1.39163e-05 -1.52711e-05 -1.23843e-19 1.05754e-05 3.77704e-20 3.34088e-06)
(-9.03127e-06 -1.50183e-05 -2.44105e-21 5.38496e-06 2.64739e-23 3.64631e-06)
(-4.81579e-06 -1.41933e-05 -1.97315e-23 7.45428e-07 -1.03263e-21 4.07036e-06)
(-1.23692e-06 -1.3132e-05 -1.41937e-22 -3.32324e-06 2.87011e-23 4.56016e-06)
(1.63629e-06 -1.12933e-05 4.4538e-20 -6.35334e-06 3.68771e-22 4.71705e-06)
(4.3693e-06 -1.18027e-05 1.64921e-22 -1.00257e-05 -3.69451e-22 5.65642e-06)
(3.23015e-06 -5.83774e-06 4.27842e-23 -6.13149e-06 -1.52138e-24 2.90134e-06)
(1.1865e-05 -1.72244e-05 -6.13051e-19 -1.98454e-05 -4.59615e-20 7.98041e-06)
(8.60112e-05 -0.000108015 -4.00233e-18 -0.000127898 -3.41816e-19 4.18871e-05)
(0.000243538 -0.000265505 9.66754e-20 -0.000322345 9.72795e-21 7.88063e-05)
(0.000248861 -0.000202512 -1.87418e-17 -0.000288924 -3.00566e-19 4.00627e-05)
(0.000434844 -0.000155656 3.35587e-18 -0.000469953 -2.5012e-17 3.51091e-05)
(0.000879945 0.000199584 1.37453e-18 -0.000859557 2.71366e-19 -2.03883e-05)
(0.00383915 0.0197186 -5.08641e-16 -0.00521295 7.06576e-17 0.0013738)
(0.00018413 -0.000161014 1.57561e-20 -0.000183018 1.84807e-20 -1.11164e-06)
(0.000155879 -0.000189721 -1.18905e-20 -0.000154872 -1.33736e-20 -1.00703e-06)
(0.000118628 -0.000214942 4.948e-23 -0.000117023 -9.8884e-22 -1.60468e-06)
(7.60893e-05 -0.00023239 -6.78613e-21 -7.41976e-05 6.36062e-21 -1.89167e-06)
(3.10361e-05 -0.000239974 1.51916e-19 -2.8767e-05 1.60409e-19 -2.26912e-06)
(-1.54505e-05 -0.000237317 -9.61121e-20 1.84272e-05 -1.2348e-19 -2.97672e-06)
(-5.93401e-05 -0.00022451 -7.26163e-21 6.29576e-05 3.18244e-20 -3.61756e-06)
(-9.76927e-05 -0.000202637 3.28448e-19 0.000102082 3.16247e-19 -4.38913e-06)
(-0.00012879 -0.000173559 -7.75229e-20 0.000134176 5.60933e-21 -5.38568e-06)
(-0.000151049 -0.000140082 -3.71749e-19 0.000157472 -2.48583e-19 -6.42341e-06)