/*--------------------------------*- C++ -*----------------------------------*\
| =========                 |                                                 |
| \\      /  F ield         | OpenFOAM: The Open Source CFD Toolbox           |
|  \\    /   O peration     | Version:  2312                                  |
|   \\  /    A nd           | Website:  www.openfoam.com                      |
|    \\/     M anipulation  |                                                 |
\*---------------------------------------------------------------------------*/
FoamFile
{
    version     2.0;
    format      ascii;
    arch        "LSB;label=32;scalar=64";
    class       volScalarField;
    location    "400";
    object      turbulenceProperties:nuEff;
}
// * * * * * * * * * * * * * * * * * * * * * * * * * * * * * * * * * * * * * //

dimensions      [0 2 -1 0 0 0 0];

internalField   nonuniform List<scalar> 
10720
(
3.5808e-05
3.95347e-05
4.45224e-05
5.09851e-05
5.93088e-05
7.00253e-05
8.38546e-05
0.000101159
0.000122975
0.000150349
0.000185234
0.000230745
0.000291313
0.000374892
0.000495068
0.000673862
0.000955884
0.00140526
0.0022274
0.00359939
0.00691141
0.0127214
0.0339238
0.0760592
0.0937464
0.0946711
0.0957081
0.0992429
0.102762
0.1045
0.104475
0.103224
0.100854
0.0974221
0.0928026
0.0869215
0.0784589
0.0683286
0.0332659
3.25824e-05
2.98038e-05
2.70736e-05
2.45837e-05
2.22497e-05
2.01071e-05
1.82445e-05
1.69611e-05
1.80965e-05
2.07909e-05
2.54814e-05
3.3227e-05
4.55761e-05
6.44542e-05
9.13876e-05
0.000127945
0.000177179
0.000246277
0.000349384
0.000511811
0.000783255
0.00125196
0.00212757
0.0037799
0.00733809
0.0147329
0.0324877
0.0663317
0.0934797
0.105035
0.108443
0.109385
0.109481
0.108985
0.107984
0.106587
0.104441
0.102006
0.0924706
1.50855e-05
1.49803e-05
1.48855e-05
1.48068e-05
1.47166e-05
1.46338e-05
1.45725e-05
1.45188e-05
1.44956e-05
1.45159e-05
1.45435e-05
1.48184e-05
1.58788e-05
1.86525e-05
2.6411e-05
4.6806e-05
9.38819e-05
0.000172778
0.00032534
0.000598486
0.00133199
0.00284133
0.00712559
0.0205192
0.0395298
0.0632779
0.0924869
0.123641
0.148698
0.162668
0.167972
0.168799
0.167214
0.163864
0.159351
0.15385
0.148539
0.139519
0.139928
1.51691e-05
1.52823e-05
1.53788e-05
1.55098e-05
1.56441e-05
1.578e-05
1.59112e-05
1.60218e-05
1.59591e-05
1.58177e-05
1.56246e-05
1.53903e-05
1.51241e-05
1.48294e-05
1.44957e-05
1.41197e-05
1.36767e-05
1.31624e-05
1.25483e-05
1.18435e-05
1.1074e-05
1.04205e-05
1.00541e-05
1.00015e-05
1.00093e-05
0.000103721
0.000549959
0.00416678
0.0141256
0.0287297
0.0437373
0.0550727
0.0618355
0.0656173
0.0680151
0.0700053
0.071737
0.075309
0.07847
1.62662e-05
1.62835e-05
1.63015e-05
1.63208e-05
1.63445e-05
1.6371e-05
1.64013e-05
1.64368e-05
1.64786e-05
1.65276e-05
1.65858e-05
1.66575e-05
1.67368e-05
1.68792e-05
1.68903e-05
1.64764e-05
1.47469e-05
1.38938e-05
1.04186e-05
1e-05
0.000264923
1.4757e-05
0.0014843
0.000534849
0.00290183
0.00741252
0.0154918
0.0309993
0.0573411
0.093763
0.132809
0.164521
0.184932
0.196768
0.203458
0.206337
0.207585
0.201494
0.210288
1.62529e-05
1.62339e-05
1.62193e-05
1.61977e-05
1.61792e-05
1.61593e-05
1.61415e-05
1.61275e-05
1.61323e-05
1.61473e-05
1.61669e-05
1.61909e-05
1.62202e-05
1.62531e-05
1.62901e-05
1.6331e-05
1.63775e-05
1.64308e-05
1.64945e-05
1.65719e-05
1.66714e-05
1.67989e-05
1.69802e-05
1.71735e-05
1.74359e-05
1.71567e-05
1.72472e-05
1.24843e-05
9.36894e-05
0.000800357
0.00302747
0.00755202
0.0142628
0.0224459
0.0311663
0.039609
0.0470128
0.0536844
0.0631772
1.60861e-05
1.60837e-05
1.60831e-05
1.60835e-05
1.60844e-05
1.60871e-05
1.6092e-05
1.60987e-05
1.61088e-05
1.61224e-05
1.61403e-05
1.61638e-05
1.61944e-05
1.62331e-05
1.62849e-05
1.63407e-05
1.62176e-05
1.59633e-05
1.41767e-05
1.12635e-05
1.00159e-05
1.0076e-05
1e-05
9.41122e-05
0.000613265
0.00163852
0.00138226
0.00170227
0.00380812
0.0135428
0.0356971
0.0728215
0.118861
0.161352
0.193233
0.215365
0.231956
0.239157
0.255253
1.60868e-05
1.60892e-05
1.60923e-05
1.60945e-05
1.60983e-05
1.61003e-05
1.61016e-05
1.61025e-05
1.61004e-05
1.60977e-05
1.60942e-05
1.60905e-05
1.6087e-05
1.60836e-05
1.60803e-05
1.60768e-05
1.60731e-05
1.60691e-05
1.60641e-05
1.6059e-05
1.60536e-05
1.60479e-05
1.60411e-05
1.60348e-05
1.6028e-05
1.60304e-05
1.60231e-05
1.60826e-05
1.59988e-05
1.5953e-05
1.52075e-05
1.41562e-05
0.00023638
0.00105481
0.003052
0.00688916
0.0131286
0.021844
0.0392284
1.61112e-05
1.61118e-05
1.6112e-05
1.61129e-05
1.61145e-05
1.61164e-05
1.61191e-05
1.61227e-05
1.61274e-05
1.61336e-05
1.61416e-05
1.61522e-05
1.61661e-05
1.61839e-05
1.62081e-05
1.62363e-05
1.62782e-05
1.63e-05
1.64929e-05
1.62815e-05
1.502e-05
1.18642e-05
1.00183e-05
1.0001e-05
1e-05
1e-05
0.000299731
0.000375122
0.000862296
0.000485761
0.00165538
0.00805288
0.0296258
0.0707322
0.124127
0.175058
0.217184
0.248051
0.278278
1.61112e-05
1.61099e-05
1.61106e-05
1.61095e-05
1.61104e-05
1.61092e-05
1.61071e-05
1.61052e-05
1.61041e-05
1.61039e-05
1.61039e-05
1.61038e-05
1.61041e-05
1.61046e-05
1.61056e-05
1.61068e-05
1.61084e-05
1.61102e-05
1.61124e-05
1.61149e-05
1.61177e-05
1.61207e-05
1.61241e-05
1.61279e-05
1.61329e-05
1.61372e-05
1.61504e-05
1.61301e-05
1.62727e-05
1.5695e-05
1.87095e-05
1.05812e-05
3.55987e-05
0.000255296
0.000738403
0.000726145
0.00124866
0.00164746
0.0137145
1.61051e-05
1.61049e-05
1.61051e-05
1.61054e-05
1.61055e-05
1.61059e-05
1.61065e-05
1.61073e-05
1.61085e-05
1.61102e-05
1.61125e-05
1.61157e-05
1.61201e-05
1.6126e-05
1.61341e-05
1.61451e-05
1.61593e-05
1.61754e-05
1.62335e-05
1.62802e-05
1.66429e-05
1.64425e-05
1.52933e-05
1.07066e-05
1.00119e-05
1.00026e-05
1.00003e-05
1e-05
1e-05
9.12446e-05
0.000376619
0.00184616
0.000408129
0.00876121
0.0380769
0.0932836
0.160406
0.223996
0.278327
1.61046e-05
1.61039e-05
1.61048e-05
1.61046e-05
1.61063e-05
1.6106e-05
1.61047e-05
1.61035e-05
1.61025e-05
1.61019e-05
1.61014e-05
1.6101e-05
1.61007e-05
1.61006e-05
1.61005e-05
1.61006e-05
1.61007e-05
1.61009e-05
1.61011e-05
1.61014e-05
1.61016e-05
1.61018e-05
1.61018e-05
1.61015e-05
1.61014e-05
1.61017e-05
1.61021e-05
1.61039e-05
1.61035e-05
1.61125e-05
1.60954e-05
1.61988e-05
1.56038e-05
1.42018e-05
1.00029e-05
0.000170087
0.000299586
0.000438432
0.00238524
1.61053e-05
1.61055e-05
1.61057e-05
1.61057e-05
1.61059e-05
1.6106e-05
1.61061e-05
1.61065e-05
1.61069e-05
1.61077e-05
1.61087e-05
1.61102e-05
1.61122e-05
1.61151e-05
1.6119e-05
1.61246e-05
1.61321e-05
1.61399e-05
1.61512e-05
1.6159e-05
1.62075e-05
1.63631e-05
1.7006e-05
1.65121e-05
1.38893e-05
1.15663e-05
1.02011e-05
1.00098e-05
1.00033e-05
1e-05
1e-05
1e-05
7.20967e-05
0.00206653
0.0016845
0.0217234
0.0782038
0.166174
0.252304
1.61048e-05
1.61038e-05
1.61042e-05
1.61039e-05
1.61055e-05
1.61054e-05
1.61042e-05
1.61031e-05
1.61022e-05
1.61017e-05
1.61013e-05
1.61011e-05
1.6101e-05
1.61011e-05
1.6101e-05
1.61011e-05
1.61012e-05
1.61015e-05
1.61018e-05
1.61022e-05
1.61027e-05
1.61033e-05
1.6104e-05
1.61048e-05
1.61057e-05
1.6107e-05
1.61087e-05
1.61108e-05
1.61134e-05
1.61168e-05
1.61209e-05
1.61258e-05
1.61496e-05
1.55243e-05
1.3404e-05
1.00586e-05
1.00117e-05
1e-05
6.58844e-05
1.61049e-05
1.6105e-05
1.61053e-05
1.61053e-05
1.61051e-05
1.6105e-05
1.61048e-05
1.61047e-05
1.61046e-05
1.61046e-05
1.61047e-05
1.61049e-05
1.61053e-05
1.61059e-05
1.61068e-05
1.61082e-05
1.61102e-05
1.61125e-05
1.61154e-05
1.61204e-05
1.61107e-05
1.61138e-05
1.62363e-05
1.66972e-05
1.69643e-05
1.66722e-05
1.55586e-05
1.35071e-05
1.16937e-05
1.00112e-05
1.00068e-05
1e-05
1e-05
1e-05
0.00039504
0.00542475
0.016139
0.0903585
0.200034
1.61043e-05
1.61032e-05
1.61032e-05
1.61027e-05
1.61043e-05
1.61045e-05
1.61036e-05
1.61026e-05
1.61017e-05
1.61013e-05
1.6101e-05
1.61008e-05
1.61007e-05
1.61008e-05
1.61009e-05
1.6101e-05
1.61011e-05
1.61011e-05
1.61012e-05
1.61013e-05
1.61014e-05
1.61016e-05
1.61017e-05
1.61019e-05
1.6102e-05
1.61022e-05
1.61024e-05
1.61027e-05
1.61029e-05
1.6103e-05
1.61035e-05
1.61008e-05
1.61118e-05
1.60774e-05
1.63142e-05
1.60208e-05
1.36718e-05
1.00183e-05
1.04973e-05
1.61048e-05
1.61049e-05
1.61051e-05
1.61049e-05
1.61047e-05
1.61044e-05
1.61042e-05
1.61041e-05
1.6104e-05
1.61039e-05
1.61039e-05
1.6104e-05
1.61043e-05
1.61047e-05
1.61053e-05
1.61062e-05
1.61077e-05
1.61095e-05
1.61113e-05
1.61139e-05
1.61146e-05
1.61083e-05
1.60859e-05
1.61578e-05
1.63844e-05
1.66627e-05
1.70088e-05
1.71669e-05
1.68804e-05
1.47891e-05
1.27049e-05
1.00052e-05
1.0003e-05
1e-05
1e-05
1e-05
0.00441388
0.030268
0.132979
1.61042e-05
1.6103e-05
1.61026e-05
1.6102e-05
1.61036e-05
1.61038e-05
1.61031e-05
1.61022e-05
1.61015e-05
1.6101e-05
1.61008e-05
1.61007e-05
1.61006e-05
1.61007e-05
1.61008e-05
1.61009e-05
1.61011e-05
1.61012e-05
1.61013e-05
1.61013e-05
1.61014e-05
1.61015e-05
1.61016e-05
1.61018e-05
1.61021e-05
1.61024e-05
1.61029e-05
1.61036e-05
1.61044e-05
1.61055e-05
1.61068e-05
1.61084e-05
1.61108e-05
1.6107e-05
1.61248e-05
1.61822e-05
1.66774e-05
1.45651e-05
1.00026e-05
1.61047e-05
1.61047e-05
1.61048e-05
1.61045e-05
1.61042e-05
1.61039e-05
1.61036e-05
1.61034e-05
1.61031e-05
1.6103e-05
1.61028e-05
1.61027e-05
1.61026e-05
1.61026e-05
1.61025e-05
1.61025e-05
1.61026e-05
1.61027e-05
1.61028e-05
1.61035e-05
1.61054e-05
1.61069e-05
1.60995e-05
1.60855e-05
1.61031e-05
1.61724e-05
1.63309e-05
1.65752e-05
1.68922e-05
1.72255e-05
1.74167e-05
1.50521e-05
1.11685e-05
1.00108e-05
1e-05
1e-05
3.88972e-05
0.00303841
0.0730163
1.61042e-05
1.6103e-05
1.61023e-05
1.61015e-05
1.61029e-05
1.61033e-05
1.61027e-05
1.61019e-05
1.61013e-05
1.61009e-05
1.61007e-05
1.61005e-05
1.61005e-05
1.61005e-05
1.61006e-05
1.61007e-05
1.61009e-05
1.61011e-05
1.61012e-05
1.61014e-05
1.61015e-05
1.61016e-05
1.61016e-05
1.61016e-05
1.61016e-05
1.61017e-05
1.61019e-05
1.61022e-05
1.61025e-05
1.61029e-05
1.61034e-05
1.61041e-05
1.61037e-05
1.61087e-05
1.60888e-05
1.61861e-05
1.5834e-05
1.87773e-05
1.05672e-05
1.61046e-05
1.61045e-05
1.61043e-05
1.6104e-05
1.61037e-05
1.61033e-05
1.6103e-05
1.61028e-05
1.61026e-05
1.61025e-05
1.61024e-05
1.61023e-05
1.61023e-05
1.61024e-05
1.61025e-05
1.61027e-05
1.6103e-05
1.61035e-05
1.61041e-05
1.61046e-05
1.61052e-05
1.61063e-05
1.61068e-05
1.6102e-05
1.60936e-05
1.60897e-05
1.60988e-05
1.61428e-05
1.62297e-05
1.64547e-05
1.6835e-05
1.75738e-05
1.71363e-05
1.30175e-05
1.00158e-05
1e-05
1e-05
0.00141466
0.0333286
1.61042e-05
1.6103e-05
1.61021e-05
1.61012e-05
1.61025e-05
1.61028e-05
1.61024e-05
1.61016e-05
1.61011e-05
1.61007e-05
1.61006e-05
1.61004e-05
1.61003e-05
1.61003e-05
1.61004e-05
1.61005e-05
1.61007e-05
1.61009e-05
1.61011e-05
1.61012e-05
1.61014e-05
1.61015e-05
1.61016e-05
1.61017e-05
1.61018e-05
1.61019e-05
1.6102e-05
1.61022e-05
1.61026e-05
1.6103e-05
1.61035e-05
1.61044e-05
1.61043e-05
1.61088e-05
1.60935e-05
1.61647e-05
1.58592e-05
1.71558e-05
1.43628e-05
1.61044e-05
1.61041e-05
1.61039e-05
1.61035e-05
1.61032e-05
1.61028e-05
1.61025e-05
1.61023e-05
1.61021e-05
1.6102e-05
1.61019e-05
1.61018e-05
1.61018e-05
1.61017e-05
1.61017e-05
1.61018e-05
1.61018e-05
1.6102e-05
1.61022e-05
1.61026e-05
1.61032e-05
1.61041e-05
1.61053e-05
1.6106e-05
1.61047e-05
1.61019e-05
1.60969e-05
1.60921e-05
1.60851e-05
1.61047e-05
1.61611e-05
1.64799e-05
1.71787e-05
1.77726e-05
1.40151e-05
1.00106e-05
1e-05
0.000291235
0.0130491
1.61042e-05
1.61031e-05
1.6102e-05
1.6101e-05
1.61021e-05
1.61024e-05
1.6102e-05
1.61013e-05
1.61009e-05
1.61006e-05
1.61004e-05
1.61003e-05
1.61001e-05
1.61001e-05
1.61001e-05
1.61002e-05
1.61004e-05
1.61006e-05
1.61008e-05
1.6101e-05
1.61012e-05
1.61014e-05
1.61016e-05
1.61017e-05
1.61019e-05
1.6102e-05
1.6102e-05
1.61021e-05
1.61023e-05
1.61025e-05
1.61028e-05
1.61032e-05
1.61035e-05
1.6105e-05
1.61015e-05
1.6119e-05
1.606e-05
1.62052e-05
1.61621e-05
1.61042e-05
1.61038e-05
1.61035e-05
1.61031e-05
1.61027e-05
1.61024e-05
1.61021e-05
1.61019e-05
1.61018e-05
1.61017e-05
1.61016e-05
1.61016e-05
1.61015e-05
1.61015e-05
1.61015e-05
1.61016e-05
1.61017e-05
1.61019e-05
1.61021e-05
1.61025e-05
1.61028e-05
1.61034e-05
1.61041e-05
1.6105e-05
1.61059e-05
1.61066e-05
1.61072e-05
1.61066e-05
1.61012e-05
1.60897e-05
1.6068e-05
1.60653e-05
1.62354e-05
1.67853e-05
1.85267e-05
1.2526e-05
1e-05
8.31142e-05
0.00434784
1.61042e-05
1.61031e-05
1.6102e-05
1.61008e-05
1.61018e-05
1.61021e-05
1.61018e-05
1.61011e-05
1.61007e-05
1.61004e-05
1.61002e-05
1.61001e-05
1.61e-05
1.60999e-05
1.60999e-05
1.61e-05
1.61001e-05
1.61003e-05
1.61005e-05
1.61007e-05
1.6101e-05
1.61012e-05
1.61014e-05
1.61016e-05
1.61018e-05
1.6102e-05
1.6102e-05
1.61021e-05
1.61022e-05
1.61023e-05
1.61026e-05
1.61029e-05
1.61033e-05
1.61037e-05
1.61047e-05
1.61028e-05
1.6117e-05
1.60529e-05
1.62571e-05
1.61039e-05
1.61034e-05
1.61031e-05
1.61027e-05
1.61023e-05
1.6102e-05
1.61017e-05
1.61016e-05
1.61015e-05
1.61014e-05
1.61014e-05
1.61014e-05
1.61013e-05
1.61014e-05
1.61014e-05
1.61014e-05
1.61015e-05
1.61016e-05
1.61017e-05
1.6102e-05
1.61023e-05
1.61027e-05
1.61032e-05
1.6104e-05
1.61048e-05
1.61058e-05
1.61073e-05
1.61094e-05
1.61114e-05
1.61103e-05
1.61025e-05
1.60729e-05
1.60467e-05
1.60752e-05
1.66816e-05
2.04367e-05
1.00117e-05
1.13354e-05
0.0011164
1.6104e-05
1.61031e-05
1.6102e-05
1.61007e-05
1.61015e-05
1.61018e-05
1.61015e-05
1.61009e-05
1.61005e-05
1.61002e-05
1.61001e-05
1.60999e-05
1.60998e-05
1.60997e-05
1.60997e-05
1.60997e-05
1.60999e-05
1.61e-05
1.61002e-05
1.61005e-05
1.61007e-05
1.6101e-05
1.61012e-05
1.61015e-05
1.61017e-05
1.61019e-05
1.6102e-05
1.61021e-05
1.61021e-05
1.61022e-05
1.61023e-05
1.61025e-05
1.61028e-05
1.6103e-05
1.61041e-05
1.61021e-05
1.61126e-05
1.60814e-05
1.61463e-05
1.61036e-05
1.6103e-05
1.61027e-05
1.61023e-05
1.61019e-05
1.61016e-05
1.61014e-05
1.61013e-05
1.61013e-05
1.61012e-05
1.61013e-05
1.61013e-05
1.61013e-05
1.61013e-05
1.61013e-05
1.61014e-05
1.61015e-05
1.61015e-05
1.61017e-05
1.61019e-05
1.61021e-05
1.61024e-05
1.61028e-05
1.61034e-05
1.6104e-05
1.61049e-05
1.6106e-05
1.61076e-05
1.611e-05
1.61129e-05
1.61152e-05
1.61129e-05
1.60796e-05
1.61051e-05
1.56415e-05
1.9296e-05
1.23618e-05
1.00003e-05
7.81658e-05
1.61038e-05
1.61031e-05
1.6102e-05
1.61006e-05
1.61013e-05
1.61016e-05
1.61013e-05
1.61007e-05
1.61003e-05
1.61e-05
1.60999e-05
1.60997e-05
1.60996e-05
1.60995e-05
1.60995e-05
1.60995e-05
1.60996e-05
1.60998e-05
1.61e-05
1.61002e-05
1.61004e-05
1.61007e-05
1.6101e-05
1.61013e-05
1.61015e-05
1.61017e-05
1.61019e-05
1.6102e-05
1.61021e-05
1.61021e-05
1.61022e-05
1.61023e-05
1.61025e-05
1.61028e-05
1.61033e-05
1.61031e-05
1.61056e-05
1.61021e-05
1.61073e-05
1.61032e-05
1.61027e-05
1.61023e-05
1.61019e-05
1.61016e-05
1.61013e-05
1.61012e-05
1.61011e-05
1.61011e-05
1.61012e-05
1.61012e-05
1.61013e-05
1.61013e-05
1.61014e-05
1.61014e-05
1.61014e-05
1.61015e-05
1.61016e-05
1.61017e-05
1.61018e-05
1.6102e-05
1.61022e-05
1.61026e-05
1.6103e-05
1.61035e-05
1.61043e-05
1.61052e-05
1.61063e-05
1.61078e-05
1.61102e-05
1.61127e-05
1.61202e-05
1.61032e-05
1.61653e-05
1.58153e-05
1.64361e-05
1.96607e-05
1.00001e-05
1.06447e-05
1.61036e-05
1.6103e-05
1.61019e-05
1.61006e-05
1.61011e-05
1.61013e-05
1.6101e-05
1.61005e-05
1.61001e-05
1.60999e-05
1.60997e-05
1.60996e-05
1.60994e-05
1.60993e-05
1.60993e-05
1.60993e-05
1.60994e-05
1.60995e-05
1.60997e-05
1.60999e-05
1.61002e-05
1.61005e-05
1.61008e-05
1.6101e-05
1.61013e-05
1.61016e-05
1.61018e-05
1.6102e-05
1.61021e-05
1.61021e-05
1.61022e-05
1.61022e-05
1.61023e-05
1.61025e-05
1.61028e-05
1.61032e-05
1.61034e-05
1.61057e-05
1.61027e-05
1.61029e-05
1.61024e-05
1.6102e-05
1.61016e-05
1.61013e-05
1.61011e-05
1.6101e-05
1.6101e-05
1.61011e-05
1.61012e-05
1.61012e-05
1.61013e-05
1.61014e-05
1.61014e-05
1.61015e-05
1.61015e-05
1.61016e-05
1.61016e-05
1.61017e-05
1.61018e-05
1.6102e-05
1.61022e-05
1.61025e-05
1.61028e-05
1.61032e-05
1.61039e-05
1.61046e-05
1.61056e-05
1.61067e-05
1.61083e-05
1.61098e-05
1.61149e-05
1.61132e-05
1.61247e-05
1.61909e-05
1.52691e-05
2.21077e-05
1.00004e-05
1e-05
1.61034e-05
1.61029e-05
1.61019e-05
1.61005e-05
1.61009e-05
1.61011e-05
1.61008e-05
1.61004e-05
1.61e-05
1.60997e-05
1.60995e-05
1.60994e-05
1.60992e-05
1.60991e-05
1.60991e-05
1.60991e-05
1.60992e-05
1.60993e-05
1.60995e-05
1.60997e-05
1.61e-05
1.61002e-05
1.61005e-05
1.61008e-05
1.61011e-05
1.61014e-05
1.61016e-05
1.61018e-05
1.6102e-05
1.61021e-05
1.61021e-05
1.61022e-05
1.61022e-05
1.61023e-05
1.61025e-05
1.61028e-05
1.6103e-05
1.61049e-05
1.61036e-05
1.61026e-05
1.61021e-05
1.61017e-05
1.61014e-05
1.61011e-05
1.6101e-05
1.61009e-05
1.6101e-05
1.61011e-05
1.61012e-05
1.61013e-05
1.61014e-05
1.61014e-05
1.61015e-05
1.61016e-05
1.61016e-05
1.61017e-05
1.61017e-05
1.61018e-05
1.61019e-05
1.6102e-05
1.61022e-05
1.61024e-05
1.61027e-05
1.61031e-05
1.61036e-05
1.61043e-05
1.61051e-05
1.61061e-05
1.61073e-05
1.61088e-05
1.611e-05
1.61189e-05
1.60836e-05
1.63112e-05
1.53085e-05
1.94595e-05
1.16189e-05
1.00005e-05
1.61031e-05
1.61028e-05
1.61018e-05
1.61005e-05
1.61008e-05
1.61009e-05
1.61006e-05
1.61002e-05
1.60998e-05
1.60995e-05
1.60993e-05
1.60992e-05
1.6099e-05
1.6099e-05
1.60989e-05
1.60989e-05
1.6099e-05
1.60991e-05
1.60993e-05
1.60995e-05
1.60997e-05
1.61e-05
1.61003e-05
1.61006e-05
1.61009e-05
1.61012e-05
1.61015e-05
1.61017e-05
1.61019e-05
1.6102e-05
1.61021e-05
1.61022e-05
1.61022e-05
1.61022e-05
1.61024e-05
1.61026e-05
1.61028e-05
1.6104e-05
1.61038e-05
1.61023e-05
1.61018e-05
1.61014e-05
1.61011e-05
1.61009e-05
1.61008e-05
1.61009e-05
1.6101e-05
1.61011e-05
1.61012e-05
1.61013e-05
1.61014e-05
1.61015e-05
1.61016e-05
1.61017e-05
1.61017e-05
1.61018e-05
1.61018e-05
1.61019e-05
1.6102e-05
1.61021e-05
1.61022e-05
1.61024e-05
1.61026e-05
1.61029e-05
1.61034e-05
1.6104e-05
1.61047e-05
1.61056e-05
1.61066e-05
1.61083e-05
1.61078e-05
1.61188e-05
1.60813e-05
1.62441e-05
1.57432e-05
1.69248e-05
1.6856e-05
1.00898e-05
1.61028e-05
1.61026e-05
1.61017e-05
1.61005e-05
1.61006e-05
1.61007e-05
1.61005e-05
1.61e-05
1.60996e-05
1.60994e-05
1.60992e-05
1.6099e-05
1.60989e-05
1.60988e-05
1.60988e-05
1.60988e-05
1.60988e-05
1.6099e-05
1.60991e-05
1.60993e-05
1.60995e-05
1.60998e-05
1.61001e-05
1.61004e-05
1.61007e-05
1.6101e-05
1.61013e-05
1.61015e-05
1.61017e-05
1.61019e-05
1.6102e-05
1.61021e-05
1.61022e-05
1.61022e-05
1.61023e-05
1.61024e-05
1.61026e-05
1.61036e-05
1.61036e-05
1.61021e-05
1.61016e-05
1.61011e-05
1.61009e-05
1.61008e-05
1.61008e-05
1.61009e-05
1.6101e-05
1.61011e-05
1.61013e-05
1.61014e-05
1.61015e-05
1.61016e-05
1.61017e-05
1.61017e-05
1.61018e-05
1.61019e-05
1.61019e-05
1.6102e-05
1.61021e-05
1.61022e-05
1.61023e-05
1.61025e-05
1.61026e-05
1.61029e-05
1.61033e-05
1.61038e-05
1.61044e-05
1.61052e-05
1.61061e-05
1.61076e-05
1.61075e-05
1.61146e-05
1.60974e-05
1.61521e-05
1.60766e-05
1.58747e-05
1.84998e-05
1.16938e-05
1.61025e-05
1.61024e-05
1.61016e-05
1.61004e-05
1.61005e-05
1.61005e-05
1.61003e-05
1.60999e-05
1.60995e-05
1.60992e-05
1.6099e-05
1.60989e-05
1.60987e-05
1.60986e-05
1.60986e-05
1.60986e-05
1.60987e-05
1.60988e-05
1.60989e-05
1.60991e-05
1.60993e-05
1.60996e-05
1.60999e-05
1.61002e-05
1.61005e-05
1.61008e-05
1.6101e-05
1.61013e-05
1.61015e-05
1.61017e-05
1.61019e-05
1.61021e-05
1.61021e-05
1.61022e-05
1.61022e-05
1.61023e-05
1.61025e-05
1.61033e-05
1.61033e-05
1.61018e-05
1.61013e-05
1.61009e-05
1.61008e-05
1.61007e-05
1.61008e-05
1.61009e-05
1.6101e-05
1.61012e-05
1.61013e-05
1.61014e-05
1.61016e-05
1.61017e-05
1.61018e-05
1.61018e-05
1.61019e-05
1.6102e-05
1.61021e-05
1.61021e-05
1.61022e-05
1.61023e-05
1.61024e-05
1.61026e-05
1.61027e-05
1.61029e-05
1.61032e-05
1.61037e-05
1.61042e-05
1.61049e-05
1.61057e-05
1.61069e-05
1.61075e-05
1.61104e-05
1.61101e-05
1.61039e-05
1.61947e-05
1.57322e-05
1.75793e-05
1.46055e-05
1.61023e-05
1.61022e-05
1.61015e-05
1.61003e-05
1.61003e-05
1.61004e-05
1.61001e-05
1.60997e-05
1.60993e-05
1.60991e-05
1.60989e-05
1.60987e-05
1.60986e-05
1.60985e-05
1.60985e-05
1.60985e-05
1.60986e-05
1.60986e-05
1.60988e-05
1.60989e-05
1.60991e-05
1.60994e-05
1.60996e-05
1.60999e-05
1.61002e-05
1.61005e-05
1.61008e-05
1.61011e-05
1.61013e-05
1.61016e-05
1.61018e-05
1.61019e-05
1.61021e-05
1.61022e-05
1.61022e-05
1.61022e-05
1.61023e-05
1.6103e-05
1.6103e-05
1.61016e-05
1.61011e-05
1.61007e-05
1.61007e-05
1.61007e-05
1.61007e-05
1.61009e-05
1.6101e-05
1.61012e-05
1.61013e-05
1.61015e-05
1.61016e-05
1.61017e-05
1.61019e-05
1.61019e-05
1.6102e-05
1.61021e-05
1.61022e-05
1.61023e-05
1.61024e-05
1.61024e-05
1.61025e-05
1.61027e-05
1.61028e-05
1.6103e-05
1.61033e-05
1.61036e-05
1.61041e-05
1.61047e-05
1.61054e-05
1.61063e-05
1.61075e-05
1.61081e-05
1.61139e-05
1.60944e-05
1.61854e-05
1.58918e-05
1.66176e-05
1.61537e-05
1.6102e-05
1.61021e-05
1.61014e-05
1.61003e-05
1.61002e-05
1.61002e-05
1.60999e-05
1.60995e-05
1.60992e-05
1.60989e-05
1.60987e-05
1.60985e-05
1.60984e-05
1.60984e-05
1.60984e-05
1.60984e-05
1.60984e-05
1.60985e-05
1.60986e-05
1.60988e-05
1.60989e-05
1.60992e-05
1.60994e-05
1.60997e-05
1.61e-05
1.61003e-05
1.61006e-05
1.61008e-05
1.61011e-05
1.61014e-05
1.61016e-05
1.61018e-05
1.6102e-05
1.61021e-05
1.61022e-05
1.61022e-05
1.61022e-05
1.61029e-05
1.61028e-05
1.61014e-05
1.6101e-05
1.61006e-05
1.61006e-05
1.61006e-05
1.61007e-05
1.61009e-05
1.61011e-05
1.61012e-05
1.61014e-05
1.61016e-05
1.61017e-05
1.61018e-05
1.61019e-05
1.61021e-05
1.61022e-05
1.61022e-05
1.61023e-05
1.61024e-05
1.61025e-05
1.61026e-05
1.61027e-05
1.61028e-05
1.61029e-05
1.61031e-05
1.61033e-05
1.61036e-05
1.6104e-05
1.61046e-05
1.61052e-05
1.6106e-05
1.61072e-05
1.61074e-05
1.61127e-05
1.61003e-05
1.61461e-05
1.60442e-05
1.61719e-05
1.64172e-05
1.61018e-05
1.61018e-05
1.61013e-05
1.61002e-05
1.61001e-05
1.61e-05
1.60997e-05
1.60993e-05
1.6099e-05
1.60988e-05
1.60985e-05
1.60984e-05
1.60983e-05
1.60982e-05
1.60982e-05
1.60982e-05
1.60983e-05
1.60984e-05
1.60985e-05
1.60986e-05
1.60988e-05
1.6099e-05
1.60992e-05
1.60995e-05
1.60998e-05
1.61e-05
1.61003e-05
1.61006e-05
1.61009e-05
1.61011e-05
1.61014e-05
1.61016e-05
1.61018e-05
1.6102e-05
1.61021e-05
1.61021e-05
1.61022e-05
1.61027e-05
1.61027e-05
1.61012e-05
1.61008e-05
1.61005e-05
1.61005e-05
1.61006e-05
1.61007e-05
1.61009e-05
1.61011e-05
1.61013e-05
1.61014e-05
1.61016e-05
1.61018e-05
1.61019e-05
1.6102e-05
1.61022e-05
1.61023e-05
1.61024e-05
1.61025e-05
1.61025e-05
1.61026e-05
1.61027e-05
1.61028e-05
1.61029e-05
1.61031e-05
1.61032e-05
1.61034e-05
1.61037e-05
1.6104e-05
1.61045e-05
1.61051e-05
1.61058e-05
1.61068e-05
1.61073e-05
1.61103e-05
1.61069e-05
1.61195e-05
1.61138e-05
1.60621e-05
1.62859e-05
1.61015e-05
1.61016e-05
1.61011e-05
1.61001e-05
1.60999e-05
1.60998e-05
1.60995e-05
1.60992e-05
1.60988e-05
1.60986e-05
1.60984e-05
1.60982e-05
1.60982e-05
1.60981e-05
1.60981e-05
1.60981e-05
1.60981e-05
1.60982e-05
1.60983e-05
1.60984e-05
1.60986e-05
1.60988e-05
1.6099e-05
1.60993e-05
1.60995e-05
1.60998e-05
1.61001e-05
1.61004e-05
1.61006e-05
1.61009e-05
1.61012e-05
1.61014e-05
1.61016e-05
1.61018e-05
1.6102e-05
1.61021e-05
1.61021e-05
1.61025e-05
1.61026e-05
1.6101e-05
1.61007e-05
1.61004e-05
1.61005e-05
1.61006e-05
1.61007e-05
1.61009e-05
1.61011e-05
1.61013e-05
1.61015e-05
1.61017e-05
1.61018e-05
1.6102e-05
1.61021e-05
1.61023e-05
1.61024e-05
1.61025e-05
1.61026e-05
1.61027e-05
1.61028e-05
1.61029e-05
1.6103e-05
1.61031e-05
1.61032e-05
1.61033e-05
1.61035e-05
1.61038e-05
1.61041e-05
1.61045e-05
1.6105e-05
1.61056e-05
1.61065e-05
1.61073e-05
1.61088e-05
1.61098e-05
1.61095e-05
1.61273e-05
1.60741e-05
1.61652e-05
1.61013e-05
1.61014e-05
1.61009e-05
1.61e-05
1.60998e-05
1.60996e-05
1.60993e-05
1.6099e-05
1.60986e-05
1.60984e-05
1.60982e-05
1.60981e-05
1.6098e-05
1.6098e-05
1.60979e-05
1.60979e-05
1.6098e-05
1.6098e-05
1.60981e-05
1.60982e-05
1.60984e-05
1.60986e-05
1.60988e-05
1.6099e-05
1.60993e-05
1.60996e-05
1.60998e-05
1.61001e-05
1.61004e-05
1.61007e-05
1.61009e-05
1.61012e-05
1.61015e-05
1.61017e-05
1.61019e-05
1.6102e-05
1.6102e-05
1.61023e-05
1.61024e-05
1.61008e-05
1.61006e-05
1.61003e-05
1.61004e-05
1.61006e-05
1.61007e-05
1.61009e-05
1.61011e-05
1.61013e-05
1.61015e-05
1.61017e-05
1.61019e-05
1.61021e-05
1.61022e-05
1.61024e-05
1.61025e-05
1.61026e-05
1.61027e-05
1.61028e-05
1.61029e-05
1.6103e-05
1.61031e-05
1.61032e-05
1.61034e-05
1.61035e-05
1.61037e-05
1.61039e-05
1.61042e-05
1.61045e-05
1.6105e-05
1.61056e-05
1.61063e-05
1.61071e-05
1.6108e-05
1.61102e-05
1.61082e-05
1.61215e-05
1.61005e-05
1.61178e-05
1.61011e-05
1.61012e-05
1.61008e-05
1.60999e-05
1.60996e-05
1.60995e-05
1.60991e-05
1.60988e-05
1.60985e-05
1.60982e-05
1.60981e-05
1.60979e-05
1.60978e-05
1.60978e-05
1.60978e-05
1.60978e-05
1.60978e-05
1.60979e-05
1.6098e-05
1.60981e-05
1.60982e-05
1.60984e-05
1.60986e-05
1.60988e-05
1.60991e-05
1.60993e-05
1.60996e-05
1.60999e-05
1.61001e-05
1.61004e-05
1.61007e-05
1.6101e-05
1.61013e-05
1.61015e-05
1.61017e-05
1.61019e-05
1.61019e-05
1.61021e-05
1.61023e-05
1.61007e-05
1.61004e-05
1.61003e-05
1.61004e-05
1.61005e-05
1.61007e-05
1.61009e-05
1.61012e-05
1.61014e-05
1.61016e-05
1.61018e-05
1.6102e-05
1.61022e-05
1.61023e-05
1.61025e-05
1.61026e-05
1.61027e-05
1.61028e-05
1.6103e-05
1.61031e-05
1.61032e-05
1.61033e-05
1.61034e-05
1.61035e-05
1.61037e-05
1.61038e-05
1.6104e-05
1.61043e-05
1.61046e-05
1.6105e-05
1.61055e-05
1.61061e-05
1.6107e-05
1.61077e-05
1.61096e-05
1.61092e-05
1.61151e-05
1.61132e-05
1.61109e-05
1.61009e-05
1.6101e-05
1.61006e-05
1.60998e-05
1.60995e-05
1.60993e-05
1.60989e-05
1.60986e-05
1.60983e-05
1.6098e-05
1.60979e-05
1.60978e-05
1.60977e-05
1.60976e-05
1.60976e-05
1.60976e-05
1.60977e-05
1.60977e-05
1.60978e-05
1.60979e-05
1.6098e-05
1.60982e-05
1.60984e-05
1.60986e-05
1.60988e-05
1.60991e-05
1.60993e-05
1.60996e-05
1.60999e-05
1.61002e-05
1.61005e-05
1.61007e-05
1.6101e-05
1.61013e-05
1.61015e-05
1.61017e-05
1.61018e-05
1.6102e-05
1.61021e-05
1.61005e-05
1.61003e-05
1.61002e-05
1.61004e-05
1.61005e-05
1.61007e-05
1.61009e-05
1.61012e-05
1.61014e-05
1.61016e-05
1.61019e-05
1.61021e-05
1.61022e-05
1.61024e-05
1.61026e-05
1.61027e-05
1.61028e-05
1.6103e-05
1.61031e-05
1.61032e-05
1.61033e-05
1.61035e-05
1.61036e-05
1.61037e-05
1.61038e-05
1.6104e-05
1.61042e-05
1.61044e-05
1.61047e-05
1.61051e-05
1.61055e-05
1.61061e-05
1.61068e-05
1.61076e-05
1.6109e-05
1.61098e-05
1.61121e-05
1.61153e-05
1.61143e-05
1.61007e-05
1.61008e-05
1.61004e-05
1.60996e-05
1.60993e-05
1.60991e-05
1.60987e-05
1.60984e-05
1.60981e-05
1.60979e-05
1.60977e-05
1.60976e-05
1.60975e-05
1.60975e-05
1.60974e-05
1.60975e-05
1.60975e-05
1.60975e-05
1.60976e-05
1.60977e-05
1.60978e-05
1.6098e-05
1.60982e-05
1.60984e-05
1.60986e-05
1.60988e-05
1.60991e-05
1.60993e-05
1.60996e-05
1.60999e-05
1.61002e-05
1.61005e-05
1.61008e-05
1.61011e-05
1.61013e-05
1.61015e-05
1.61017e-05
1.61018e-05
1.6102e-05
1.61004e-05
1.61002e-05
1.61001e-05
1.61003e-05
1.61005e-05
1.61007e-05
1.6101e-05
1.61012e-05
1.61015e-05
1.61017e-05
1.61019e-05
1.61021e-05
1.61023e-05
1.61025e-05
1.61027e-05
1.61028e-05
1.6103e-05
1.61031e-05
1.61032e-05
1.61034e-05
1.61035e-05
1.61036e-05
1.61038e-05
1.61039e-05
1.6104e-05
1.61042e-05
1.61043e-05
1.61046e-05
1.61048e-05
1.61052e-05
1.61056e-05
1.61061e-05
1.61068e-05
1.61075e-05
1.61086e-05
1.61098e-05
1.61112e-05
1.61139e-05
1.61167e-05
1.61005e-05
1.61006e-05
1.61003e-05
1.60995e-05
1.60991e-05
1.60989e-05
1.60985e-05
1.60982e-05
1.60979e-05
1.60977e-05
1.60975e-05
1.60974e-05
1.60973e-05
1.60973e-05
1.60973e-05
1.60973e-05
1.60973e-05
1.60974e-05
1.60974e-05
1.60975e-05
1.60976e-05
1.60978e-05
1.60979e-05
1.60981e-05
1.60983e-05
1.60986e-05
1.60988e-05
1.6099e-05
1.60993e-05
1.60996e-05
1.60999e-05
1.61002e-05
1.61005e-05
1.61008e-05
1.61011e-05
1.61013e-05
1.61015e-05
1.61016e-05
1.61018e-05
1.61002e-05
1.61001e-05
1.61e-05
1.61003e-05
1.61005e-05
1.61007e-05
1.6101e-05
1.61012e-05
1.61015e-05
1.61017e-05
1.6102e-05
1.61022e-05
1.61024e-05
1.61026e-05
1.61028e-05
1.61029e-05
1.61031e-05
1.61032e-05
1.61034e-05
1.61035e-05
1.61037e-05
1.61038e-05
1.61039e-05
1.61041e-05
1.61042e-05
1.61044e-05
1.61045e-05
1.61047e-05
1.6105e-05
1.61053e-05
1.61057e-05
1.61062e-05
1.61068e-05
1.61075e-05
1.61084e-05
1.61096e-05
1.61111e-05
1.61125e-05
1.61168e-05
1.61004e-05
1.61004e-05
1.61001e-05
1.60993e-05
1.60989e-05
1.60986e-05
1.60983e-05
1.60979e-05
1.60976e-05
1.60974e-05
1.60973e-05
1.60972e-05
1.60971e-05
1.60971e-05
1.60971e-05
1.60971e-05
1.60971e-05
1.60972e-05
1.60972e-05
1.60973e-05
1.60974e-05
1.60975e-05
1.60977e-05
1.60979e-05
1.60981e-05
1.60983e-05
1.60985e-05
1.60988e-05
1.6099e-05
1.60993e-05
1.60996e-05
1.60999e-05
1.61002e-05
1.61005e-05
1.61008e-05
1.61011e-05
1.61013e-05
1.61014e-05
1.61017e-05
1.61001e-05
1.61e-05
1.61e-05
1.61002e-05
1.61004e-05
1.61007e-05
1.6101e-05
1.61013e-05
1.61015e-05
1.61018e-05
1.6102e-05
1.61022e-05
1.61025e-05
1.61027e-05
1.61028e-05
1.6103e-05
1.61032e-05
1.61034e-05
1.61035e-05
1.61037e-05
1.61038e-05
1.6104e-05
1.61041e-05
1.61043e-05
1.61044e-05
1.61045e-05
1.61047e-05
1.61049e-05
1.61051e-05
1.61054e-05
1.61058e-05
1.61062e-05
1.61068e-05
1.61075e-05
1.61083e-05
1.61093e-05
1.61109e-05
1.61117e-05
1.6116e-05
1.61002e-05
1.61002e-05
1.60999e-05
1.60991e-05
1.60987e-05
1.60984e-05
1.60981e-05
1.60977e-05
1.60974e-05
1.60972e-05
1.60971e-05
1.6097e-05
1.60969e-05
1.60969e-05
1.60969e-05
1.60969e-05
1.60969e-05
1.6097e-05
1.6097e-05
1.60971e-05
1.60972e-05
1.60973e-05
1.60974e-05
1.60976e-05
1.60978e-05
1.6098e-05
1.60982e-05
1.60985e-05
1.60987e-05
1.6099e-05
1.60993e-05
1.60996e-05
1.60999e-05
1.61002e-05
1.61005e-05
1.61008e-05
1.61011e-05
1.61012e-05
1.61016e-05
1.61e-05
1.60999e-05
1.60999e-05
1.61002e-05
1.61004e-05
1.61007e-05
1.6101e-05
1.61013e-05
1.61015e-05
1.61018e-05
1.61021e-05
1.61023e-05
1.61025e-05
1.61027e-05
1.61029e-05
1.61031e-05
1.61033e-05
1.61035e-05
1.61036e-05
1.61038e-05
1.6104e-05
1.61041e-05
1.61043e-05
1.61044e-05
1.61046e-05
1.61047e-05
1.61049e-05
1.61051e-05
1.61053e-05
1.61056e-05
1.61059e-05
1.61063e-05
1.61068e-05
1.61075e-05
1.61083e-05
1.61092e-05
1.61108e-05
1.61114e-05
1.61152e-05
1.61e-05
1.61e-05
1.60997e-05
1.6099e-05
1.60985e-05
1.60982e-05
1.60978e-05
1.60975e-05
1.60972e-05
1.6097e-05
1.60968e-05
1.60967e-05
1.60967e-05
1.60967e-05
1.60966e-05
1.60967e-05
1.60967e-05
1.60967e-05
1.60968e-05
1.60968e-05
1.60969e-05
1.6097e-05
1.60972e-05
1.60974e-05
1.60975e-05
1.60977e-05
1.60979e-05
1.60981e-05