/*--------------------------------*- C++ -*----------------------------------*\
| =========                 |                                                 |
| \\      /  F ield         | OpenFOAM: The Open Source CFD Toolbox           |
|  \\    /   O peration     | Version:  2312                                  |
|   \\  /    A nd           | Website:  www.openfoam.com                      |
|    \\/     M anipulation  |                                                 |
\*---------------------------------------------------------------------------*/
FoamFile
{
    version     2.0;
    format      ascii;
    arch        "LSB;label=32;scalar=64";
    class       volScalarField;
    location    "400";
    object      turbulenceProperties:epsilon;
}
// * * * * * * * * * * * * * * * * * * * * * * * * * * * * * * * * * * * * * //

dimensions      [0 2 -3 0 0 0 0];

internalField   nonuniform List<scalar> 
10720
(
0.259336
0.340058
0.452942
0.623531
0.840154
1.1348
1.53073
2.0349
2.68401
3.51442
4.57782
5.96433
7.80215
10.2908
13.7709
18.7577
26.236
37.3536
56.0419
83.0163
139.619
211.739
435.017
739.14
736.302
667.339
637.5
637.623
643.565
639.848
623.102
593.507
548.513
489.435
416.582
334.398
232.361
145.742
16.2702
0.194102
0.147051
0.100346
0.0666538
0.0405368
0.0221682
0.0111769
0.00631143
0.00685258
0.0122584
0.0258982
0.0542435
0.107194
0.197731
0.340207
0.553774
0.87046
1.35304
2.12201
3.40242
5.64714
9.7147
17.6458
33.2324
67.6701
140.858
318.995
663.28
945.051
1066.93
1100.19
1101.75
1088.14
1062.38
1025.39
978.924
912.874
836.943
619.377
0.00736068
0.00727969
0.00711408
0.00670935
0.0061062
0.00544777
0.00471907
0.00396206
0.00327805
0.00267032
0.00214888
0.00181988
0.00177254
0.00210474
0.00330683
0.00670982
0.0165561
0.0442002
0.139
0.449817
1.75895
6.25742
23.5078
83.8983
166.585
235.151
278.201
284.895
250.858
193.069
135.813
91.8787
63.4919
45.7233
34.2691
26.502
21.746
17.5738
20.2059
0.00722705
0.0070314
0.00664091
0.00608257
0.00535916
0.00447577
0.00354115
0.00273952
0.002091
0.00153415
0.00108411
0.000757351
0.000526721
0.000363723
0.000249043
0.000169131
0.00011332
7.46796e-05
4.72825e-05
2.75711e-05
1.31808e-05
4.21847e-06
4.01305e-07
6.84214e-09
5.59493e-08
0.000986785
0.00606625
0.0512887
0.170777
0.319801
0.466711
0.615417
0.7739
0.946813
1.13459
1.34802
1.59537
2.2074
4.09703
0.00330241
0.00325028
0.00310516
0.00288981
0.00267285
0.00244421
0.00222347
0.00203384
0.00187745
0.00176035
0.00167223
0.00162241
0.00160873
0.00163522
0.00164493
0.00155107
0.00112306
0.00089483
7.48799e-05
5.58937e-12
0.0272391
0.000266846
0.0014378
0.0215082
0.495897
2.48807
7.76305
19.9896
42.2083
70.4156
91.5048
94.1838
80.078
60.6788
44.1729
31.9683
23.9934
16.9414
20.4948
0.00335422
0.0033462
0.00332863
0.00321141
0.00300838
0.00268226
0.00226319
0.00182811
0.00146527
0.00113382
0.000824579
0.000571969
0.000384965
0.000253508
0.000165598
0.000108228
7.19472e-05
4.93524e-05
3.55846e-05
2.70797e-05
2.1892e-05
1.88162e-05
1.72177e-05
1.63647e-05
1.63057e-05
1.61195e-05
1.82309e-05
6.37659e-06
0.000167584
0.000992374
0.00208857
0.00364295
0.00959257
0.0265264
0.0598464
0.110638
0.177024
0.222109
0.549908
0.00235402
0.00236378
0.0023401
0.0023013
0.00222224
0.00210713
0.0019679
0.00180075
0.0016188
0.00142883
0.00123791
0.00105123
0.000872798
0.00070742
0.000557539
0.000419377
0.000300291
0.000217161
0.000128185
3.81881e-05
3.97348e-07
3.46006e-06
0
0.00655589
0.0330778
0.0535624
0.0194183
0.00359729
0.0168599
0.441135
3.21543
11.6421
25.0232
35.4762
37.1749
32.3941
26.5985
19.7618
21.4735
0.00230377
0.00222869
0.00211335
0.0019785
0.0018157
0.00161311
0.00139175
0.00117414
0.000967213
0.000765316
0.000581454
0.000431985
0.000318371
0.000234335
0.000173349
0.000129291
9.78789e-05
7.55207e-05
5.96704e-05
4.81439e-05
3.96879e-05
3.3216e-05
2.79053e-05
2.28189e-05
1.81257e-05
1.4635e-05
1.22458e-05
1.06583e-05
8.88569e-06
6.83642e-06
3.86227e-06
1.52994e-06
2.2841e-05
1.51467e-05
6.81692e-05
0.000862698
0.00494062
0.0189409
0.139764
0.00132482
0.00132014
0.0012996
0.00126338
0.00120833
0.00113566
0.00105084
0.000956771
0.000858101
0.000761854
0.000671392
0.000589994
0.000520287
0.000462944
0.000417787
0.00038162
0.00034523
0.000302322
0.000261794
0.000206948
0.000137487
4.60825e-05
3.20481e-07
1.63875e-08
0
0
0.011824
0.0146935
0.0317753
0.01379
0.0242928
0.0158598
0.16981
2.41895
9.07712
16.8985
21.0077
19.7613
21.824
0.00131797
0.00129939
0.00126279
0.00120527
0.00112645
0.00101935
0.000898222
0.000776694
0.000656842
0.000536839
0.000424835
0.000327908
0.000248292
0.000184947
0.000136048
9.92584e-05
7.22563e-05
5.28538e-05
3.91578e-05
2.95088e-05
2.27133e-05
1.78296e-05
1.41648e-05
1.10619e-05
8.30119e-06
6.10313e-06
4.59807e-06
3.68303e-06
3.31213e-06
2.83274e-06
4.17154e-06
2.0748e-07
8.54178e-06
5.12892e-05
0.000109929
7.9428e-05
9.20293e-05
0.000240496
0.0150663
0.000890098
0.000897705
0.000896981
0.000890586
0.000873175
0.000845324
0.000808728
0.000762612
0.000708804
0.000649673
0.00058667
0.000522166
0.000458395
0.000396982
0.000339298
0.000284292
0.000229864
0.000180041
0.000139266
0.000106664
8.65599e-05
6.73871e-05
4.95019e-05
5.82643e-06
6.38531e-08
1.14818e-08
1.16397e-09
0
0
0.00118238
0.00618031
0.0337308
0.0057369
0.0421464
0.0462717
1.65831
7.51635
13.9869
19.8668
0.000874041
0.00085209
0.000820656
0.000780078
0.000729506
0.00066561
0.000595699
0.000524996
0.000453184
0.000379941
0.00031015
0.000247712
0.000194527
0.00015075
0.00011578
8.85947e-05
6.7915e-05
5.24539e-05
4.10264e-05
3.25765e-05
2.62687e-05
2.1413e-05
1.74699e-05
1.39443e-05
1.07036e-05
8.0157e-06
5.98798e-06
4.51792e-06
3.44444e-06
2.66256e-06
2.0727e-06
1.60322e-06
1.03386e-06
5.09757e-07
9.98068e-11
7.30161e-06
1.14911e-05
4.84038e-05
0.00111788
0.00058246
0.000587587
0.000588407
0.000585433
0.000576143
0.000560234
0.000538357
0.000510265
0.000476733
0.000439275
0.00039912
0.000357819
0.000317053
0.000278194
0.000242175
0.000210011
0.00018283
0.000159194
0.000136806
0.000115174
9.56716e-05
8.00934e-05
7.2236e-05
5.46506e-05
2.54959e-05
7.36643e-06
5.72081e-07
1.51664e-08
3.85177e-09
1.39363e-11
0
0
0.000433305
0.0178679
0.0125515
0.0336982
0.415347
4.90047
14.1048
0.000572936
0.000560161
0.000541835
0.000517097
0.000485864
0.000447216
0.000405699
0.000362746
0.000318225
0.000272755
0.000228739
0.00018818
0.000152256
0.000121385
9.5599e-05
7.46305e-05
5.79539e-05
4.49659e-05
3.50183e-05
2.74511e-05
2.16954e-05
1.72522e-05
1.37026e-05
1.06764e-05
8.02404e-06
5.85967e-06
4.23747e-06
3.07547e-06
2.24988e-06
1.67437e-06
1.29946e-06
1.08109e-06
9.59105e-07
7.8535e-07
4.38776e-07
4.91703e-09
8.12867e-10
6.85753e-13
2.41134e-05
0.000400123
0.000405605
0.000408877
0.0004102
0.000407957
0.00040186
0.000392237
0.000378526
0.000360952
0.000340167
0.00031647
0.000290681
0.000263657
0.000236154
0.000208924
0.000182707
0.000157345
0.000132462
0.000109451
8.97374e-05
7.37558e-05
6.19149e-05
5.41493e-05
4.9558e-05
4.17174e-05
3.0013e-05
1.7646e-05
7.67075e-06
2.57892e-06
7.56753e-09
3.6139e-09
2.34031e-12
0
0
0.001131
0.024117
0.027245
0.464864
6.38491
0.000391958
0.000382231
0.000369381
0.000352666
0.000332264
0.000307828
0.0002822
0.00025524
0.000226966
0.000198169
0.000169886
0.000143243
0.000118957
9.73945e-05
7.87667e-05
6.31164e-05
5.02562e-05
3.99306e-05
3.17885e-05
2.54258e-05
2.04513e-05
1.651e-05
1.32879e-05
1.05113e-05
8.06641e-06
6.03469e-06
4.4625e-06
3.28965e-06
2.41531e-06
1.76318e-06
1.28435e-06
9.34554e-07
6.79149e-07
4.93014e-07
3.82803e-07
3.15702e-07
1.80295e-07
1.14397e-09
1.50027e-07
0.000278424
0.000282829
0.000286061
0.000288088
0.000288015
0.000285549
0.000280778
0.000273243
0.000262995
0.000250287
0.00023528
0.00021842
0.000200249
0.000181297
0.000162182
0.000143375
0.000125408
0.000108977
9.40572e-05
8.05667e-05
6.86109e-05
5.84859e-05
5.01706e-05
4.35804e-05
3.7445e-05
3.04897e-05
2.37216e-05
1.7613e-05
1.24424e-05
6.42997e-06
2.69161e-06
2.04474e-09
9.42838e-10
0
0
0
0.009816
0.0254139
1.52324
0.000272442
0.000265599
0.000256885
0.000245536
0.000232043
0.000216263
0.000199876
0.000182479
0.000164164
0.000145555
0.000127122
0.000109452
9.29633e-05
7.79056e-05
6.44818e-05
5.28127e-05
4.28948e-05
3.46459e-05
2.7912e-05
2.24828e-05
1.81242e-05
1.45991e-05
1.16863e-05
9.19675e-06
7.04119e-06
5.25463e-06
3.86647e-06
2.82985e-06
2.0629e-06
1.49894e-06
1.0928e-06
8.11168e-07
6.24544e-07
5.08672e-07
4.46632e-07
4.53976e-07
5.26809e-07
5.92658e-07
3.90812e-10
0.000197875
0.000201518
0.000204582
0.000206968
0.000208083
0.000207795
0.000206066
0.000202534
0.000197192
0.000190107
0.000181269
0.000170897
0.000159262
0.000146657
0.00013344
0.000119952
0.000106597
9.3461e-05
8.07402e-05
6.90231e-05
5.88446e-05
5.04167e-05
4.3529e-05
3.75014e-05
3.16082e-05
2.55927e-05
2.01215e-05
1.582e-05
1.2757e-05
1.04612e-05
8.42908e-06
4.47098e-06
7.49964e-07
3.47541e-09
0
0
1.66037e-05
0.00388747
0.191682
0.00019326
0.000188239
0.000182074
0.00017413
0.000164965
0.000154567
0.000143757
0.000132247
0.00012019
0.000107952
9.57606e-05
8.39325e-05
7.26817e-05
6.21556e-05
5.25254e-05
4.39135e-05
3.63665e-05
2.99025e-05
2.44659e-05
1.99587e-05
1.62487e-05
1.31847e-05
1.06165e-05
8.41542e-06
6.51118e-06
4.92237e-06
3.66881e-06
2.71556e-06
1.9978e-06
1.45971e-06
1.06232e-06
7.74738e-07
5.694e-07
4.30163e-07
3.40773e-07
3.24171e-07
3.15537e-07
8.75639e-07
1.34212e-07
0.000142638
0.000145535
0.000148157
0.00015039
0.000151829
0.000152425
0.000152072
0.000150546
0.000147766
0.000143751
0.000138432
0.000131905
0.000124302
0.000115783
0.000106587
9.69671e-05
8.71735e-05
7.7513e-05
6.8255e-05
5.95976e-05
5.17889e-05
4.49591e-05
3.90714e-05
3.37301e-05
2.83944e-05
2.29473e-05
1.78932e-05
1.38742e-05
1.10086e-05
9.11691e-06
7.81079e-06
7.0536e-06
5.43322e-06
1.84937e-06
4.77465e-09
0
0
0.000840843
0.0275425
0.000139129
0.000135442
0.000131053
0.000125411
0.000119063
0.000112079
0.000104771
9.69955e-05
8.8931e-05
8.07651e-05
7.25909e-05
6.45886e-05
5.68717e-05
4.95164e-05
4.26255e-05
3.63003e-05
3.05998e-05
2.55683e-05
2.12133e-05
1.74994e-05
1.436e-05
1.17102e-05
9.4569e-06
7.51614e-06
5.84107e-06
4.43992e-06
3.32318e-06
2.46504e-06
1.81506e-06
1.32715e-06
9.67461e-07
7.09335e-07
5.29728e-07
4.12174e-07
3.40295e-07
3.31744e-07
3.29121e-07
6.59005e-07
1.03089e-06
0.000104215
0.000106523
0.000108714
0.000110683
0.000112174
0.000113149
0.000113527
0.000113126
0.000111884
0.000109782
0.000106741
0.000102791
9.79818e-05
9.23929e-05
8.61545e-05
7.94219e-05
7.23781e-05
6.52406e-05
5.81233e-05
5.12314e-05
4.48764e-05
3.92344e-05
3.42879e-05
2.977e-05
2.52772e-05
2.06848e-05
1.63399e-05
1.27396e-05
1.00464e-05
8.11251e-06
6.68549e-06
5.82058e-06
5.41333e-06
5.01531e-06
2.17671e-06
2.94165e-09
0
0.000103669
0.00833592
0.000101532
9.87721e-05
9.5598e-05
9.15381e-05
8.70657e-05
8.22714e-05
7.72342e-05
7.18928e-05
6.64161e-05
6.08817e-05
5.53376e-05
4.98781e-05
4.45551e-05
3.9396e-05
3.44732e-05
2.98517e-05
2.55774e-05
2.1703e-05
1.82529e-05
1.52328e-05
1.26191e-05
1.03675e-05
8.42145e-06
6.73087e-06
5.27007e-06
4.04135e-06
3.05088e-06
2.27965e-06
1.68902e-06
1.24147e-06
9.07898e-07
6.65302e-07
4.92823e-07
3.76356e-07
3.03217e-07
2.85478e-07
2.91892e-07
4.81986e-07
1.22986e-06
7.69961e-05
7.88236e-05
8.06165e-05
8.22861e-05
8.36585e-05
8.47148e-05
8.53985e-05
8.55623e-05
8.51546e-05
8.41485e-05
8.24672e-05
8.01126e-05
7.70921e-05
7.34306e-05
6.92057e-05
6.45124e-05
5.94639e-05
5.42299e-05
4.89402e-05
4.3734e-05
3.88e-05
3.42767e-05
3.01704e-05
2.63361e-05
2.25276e-05
1.86577e-05
1.49686e-05
1.18351e-05
9.41701e-06
7.60212e-06
6.20452e-06
5.14582e-06
4.4621e-06
4.20736e-06
4.62084e-06
1.22514e-06
1.34299e-13
3.10937e-05
0.00278421
7.49444e-05
7.28624e-05
7.05323e-05
6.75831e-05
6.43884e-05
6.10324e-05
5.75024e-05
5.37783e-05
5.00047e-05
4.62086e-05
4.24056e-05
3.86436e-05
3.49469e-05
3.13239e-05
2.78049e-05
2.44351e-05
2.1249e-05
1.82896e-05
1.5586e-05
1.31565e-05
1.10018e-05
9.10515e-06
7.43921e-06
5.97904e-06
4.71161e-06
3.63962e-06
2.76616e-06
2.07787e-06
1.54571e-06
1.13958e-06
8.35176e-07
6.1295e-07
4.55095e-07
3.48771e-07
2.82407e-07
2.64157e-07
2.71699e-07
4.08746e-07
1.03844e-06
5.74538e-05
5.88954e-05
6.03488e-05
6.17373e-05
6.29416e-05
6.39605e-05
6.47402e-05
6.51729e-05
6.5223e-05
6.48553e-05
6.4011e-05
6.26706e-05
6.08312e-05
5.84939e-05
5.5691e-05
5.24744e-05
4.8912e-05
4.51244e-05
4.12004e-05
3.72303e-05
3.33574e-05
2.97247e-05
2.63506e-05
2.3149e-05
1.99624e-05
1.67308e-05
1.3625e-05
1.0931e-05
8.79924e-06
7.16363e-06
5.88656e-06
4.87316e-06
4.09487e-06
3.56228e-06
3.45098e-06
5.01686e-06
2.8198e-09
5.61077e-07
0.000697441
5.58701e-05
5.42923e-05
5.25555e-05
5.0393e-05
4.80852e-05
4.56923e-05
4.31778e-05
4.05544e-05
3.79188e-05
3.52815e-05
3.26434e-05
3.00317e-05
2.74503e-05
2.48933e-05
2.23792e-05
1.99288e-05
1.75632e-05
1.53168e-05
1.32164e-05
1.12825e-05
9.52542e-06
7.94623e-06
6.53616e-06
5.28782e-06
4.19736e-06
3.26795e-06
2.50272e-06
1.89224e-06
1.41511e-06
1.04782e-06
7.70276e-07
5.65977e-07
4.19403e-07
3.19365e-07
2.5579e-07
2.35566e-07
2.3977e-07
3.50333e-07
8.40606e-07
4.32425e-05
4.43767e-05
4.55496e-05
4.66857e-05
4.77115e-05
4.86338e-05
4.93979e-05
4.99325e-05
5.02105e-05
5.01977e-05
4.98487e-05
4.91435e-05
4.80638e-05
4.66007e-05
4.47622e-05
4.25786e-05
4.00917e-05
3.73702e-05
3.44939e-05
3.15239e-05
2.85424e-05
2.56722e-05
2.29384e-05
2.02934e-05
1.76452e-05
1.49576e-05
1.23518e-05
1.00453e-05
8.17388e-06
6.71038e-06
5.55598e-06
4.64015e-06
3.90444e-06
3.39401e-06
2.75702e-06
4.22966e-06
9.55676e-07
4.44899e-11
4.22163e-05
4.20118e-05
4.08083e-05
3.95021e-05
3.78987e-05
3.62141e-05
3.4481e-05
3.26679e-05
3.07976e-05
2.89359e-05
2.70829e-05
2.52357e-05
2.34051e-05
2.15896e-05
1.97793e-05
1.79784e-05
1.6199e-05
1.44507e-05
1.27551e-05
1.11338e-05
9.60673e-06
8.18932e-06
6.88973e-06
5.70926e-06
4.64957e-06
3.71635e-06
2.91546e-06
2.24919e-06
1.71118e-06
1.28612e-06
9.5602e-07
7.04614e-07
5.18232e-07
3.83708e-07
2.91327e-07
2.32024e-07
2.11247e-07
2.1274e-07
2.99841e-07
6.83958e-07
3.27917e-05
3.36872e-05
3.46287e-05
3.55516e-05
3.64132e-05
3.72157e-05
3.79183e-05
3.8468e-05
3.88452e-05
3.90218e-05
3.89601e-05
3.86404e-05
3.80463e-05
3.71611e-05
3.59885e-05
3.45353e-05
3.28245e-05
3.08937e-05
2.8808e-05
2.65999e-05
2.43199e-05
2.2067e-05
1.98729e-05
1.77145e-05
1.55353e-05
1.33162e-05
1.11449e-05
9.18549e-06
7.55484e-06
6.25226e-06
5.21063e-06
4.38149e-06
3.71051e-06
3.24901e-06
2.69655e-06
2.76265e-06
3.87375e-06
5.03644e-12
3.28006e-07
3.18347e-05
3.09066e-05
2.99174e-05
2.87177e-05
2.74766e-05
2.62042e-05
2.48808e-05
2.35329e-05
2.22027e-05
2.0887e-05
1.95803e-05
1.82885e-05
1.70044e-05
1.57158e-05
1.4424e-05
1.313e-05
1.184e-05
1.05661e-05
9.3234e-06
8.12794e-06
6.99434e-06
5.93438e-06
4.95505e-06
4.06503e-06
3.27341e-06
2.58787e-06
2.01127e-06
1.54006e-06
1.16366e-06
8.68584e-07
6.41931e-07
4.72531e-07
3.49259e-07
2.63777e-07
2.08123e-07
1.86639e-07
1.85896e-07
2.53531e-07
5.55851e-07
2.50316e-05
2.57411e-05
2.64936e-05
2.72419e-05
2.7956e-05
2.8639e-05
2.92602e-05
2.97802e-05
3.01815e-05
3.04449e-05
3.05405e-05
3.04511e-05
3.01639e-05
2.966e-05
2.89343e-05
2.79865e-05
2.68265e-05
2.54746e-05
2.39767e-05
2.23541e-05
2.06347e-05
1.88875e-05
1.71471e-05
1.54059e-05
1.36303e-05
1.18106e-05
1.00127e-05
8.35973e-06
6.95025e-06
5.79935e-06
4.86487e-06
4.11161e-06
3.50524e-06
3.05005e-06
2.71799e-06
2.12139e-06
4.56377e-06
4.4628e-11
6.61031e-18
2.42869e-05
2.35678e-05
2.28101e-05
2.1906e-05
2.09831e-05
2.00379e-05
1.90618e-05
1.8081e-05
1.71208e-05
1.61769e-05
1.52446e-05
1.43242e-05
1.34089e-05
1.24881e-05
1.1558e-05
1.06176e-05
9.6667e-06
8.71328e-06
7.76574e-06
6.83655e-06
5.93783e-06
5.08078e-06
4.2754e-06
3.5335e-06
2.86694e-06
2.28367e-06
1.78788e-06
1.37787e-06
1.04663e-06
7.84413e-07
5.81225e-07
4.28069e-07
3.15746e-07
2.37171e-07
1.85361e-07
1.63643e-07
1.6112e-07
2.12867e-07
4.48983e-07
1.92212e-05
1.97833e-05
2.03839e-05
2.09903e-05
2.15759e-05
2.21507e-05
2.26858e-05
2.31542e-05
2.35428e-05
2.38368e-05
2.40121e-05
2.40571e-05
2.39564e-05
2.36953e-05
2.32668e-05
2.26662e-05
2.18966e-05
2.09653e-05
1.99027e-05
1.87233e-05
1.74414e-05
1.60994e-05
1.47339e-05
1.33453e-05
1.19128e-05
1.04328e-05
8.95451e-06
7.57072e-06
6.3629e-06
5.35462e-06
4.52306e-06
3.8418e-06
3.29498e-06
2.85175e-06
2.6111e-06
2.00599e-06
3.35482e-06
4.77047e-07
8.1944e-11
1.86389e-05
1.80794e-05
1.74949e-05
1.68081e-05
1.61165e-05
1.54069e-05
1.46804e-05
1.39594e-05
1.32594e-05
1.25755e-05
1.19041e-05
1.12437e-05
1.05873e-05
9.92505e-06
9.25314e-06
8.568e-06
7.86755e-06
7.15537e-06
6.43622e-06
5.71792e-06
5.01058e-06
4.32431e-06
3.66849e-06
3.05475e-06
2.49643e-06
2.00358e-06
1.58014e-06
1.22573e-06
9.36064e-07
7.04419e-07
5.23255e-07
3.85457e-07
2.83558e-07
2.11586e-07
1.63495e-07
1.4181e-07
1.37897e-07
1.77253e-07
3.60071e-07
1.4837e-05
1.52819e-05
1.57632e-05
1.62515e-05
1.67316e-05
1.72093e-05
1.76645e-05
1.80736e-05
1.84305e-05
1.87218e-05
1.89296e-05
1.90435e-05
1.90532e-05
1.89447e-05
1.87124e-05
1.8348e-05
1.78505e-05
1.72225e-05
1.6479e-05
1.56324e-05
1.46881e-05
1.36688e-05
1.26099e-05
1.15153e-05
1.03714e-05
9.17739e-06
7.97069e-06
6.82122e-06
5.79519e-06
4.91971e-06
4.18574e-06
3.57524e-06
3.0809e-06
2.67205e-06
2.42314e-06
2.03209e-06
2.28304e-06
2.01908e-06
2.24135e-08
1.43798e-05
1.39424e-05
1.34889e-05
1.29644e-05
1.24406e-05
1.19039e-05
1.13584e-05
1.08239e-05
1.03085e-05
9.80889e-06
9.3211e-06
8.84302e-06
8.36884e-06
7.88992e-06
7.4022e-06
6.90202e-06
6.38582e-06
5.85442e-06
5.31034e-06
4.75855e-06
4.20532e-06
3.6589e-06
3.12816e-06
2.62494e-06
2.16172e-06
1.74804e-06
1.38851e-06
1.08399e-06
8.32212e-07
6.2875e-07
4.68104e-07
3.44761e-07
2.52791e-07
1.87192e-07
1.42799e-07
1.21486e-07
1.16546e-07
1.46247e-07
2.86603e-07
1.1506e-05
1.18589e-05
1.22442e-05
1.2638e-05
1.30293e-05
1.34247e-05
1.38062e-05
1.41581e-05
1.44748e-05
1.47461e-05
1.49589e-05
1.51054e-05
1.5177e-05
1.51631e-05
1.50562e-05
1.48498e-05
1.454e-05
1.41263e-05
1.36137e-05
1.30144e-05
1.23282e-05
1.15642e-05
1.0752e-05
9.89835e-06
8.99393e-06
8.03918e-06
7.06193e-06
6.11469e-06
5.25059e-06
4.49714e-06
3.85437e-06
3.31236e-06
2.8657e-06
2.50021e-06
2.22963e-06
2.00303e-06
1.78735e-06
2.30642e-06
4.99983e-07
1.1146e-05
1.08025e-05
1.04491e-05
1.00466e-05
9.64561e-06
9.23707e-06
8.82464e-06
8.42443e-06
8.04173e-06
7.67335e-06
7.31592e-06
6.96722e-06
6.62201e-06
6.27378e-06
5.91828e-06
5.55176e-06
5.17086e-06
4.77483e-06
4.36398e-06
3.94128e-06
3.51127e-06
3.07961e-06
2.65337e-06
2.24337e-06
1.86137e-06
1.51622e-06
1.21286e-06
9.52879e-07
7.3542e-07
5.5778e-07
4.16128e-07
3.06296e-07
2.23696e-07
1.64175e-07
1.23402e-07
1.02733e-07
9.70935e-08
1.195e-07
2.2664e-07
8.95966e-06
9.2406e-06
9.54886e-06
9.86619e-06
1.01846e-05
1.051e-05
1.08273e-05
1.11259e-05
1.1401e-05
1.16449e-05
1.18478e-05
1.20039e-05
1.2106e-05
1.21458e-05
1.21173e-05
1.20144e-05
1.1832e-05
1.1568e-05
1.12233e-05
1.08074e-05
1.03159e-05
9.75091e-06
9.13542e-06
8.47715e-06
7.76961e-06
7.01283e-06
6.2277e-06
5.45342e-06
4.73205e-06
4.08949e-06
3.53122e-06
3.05392e-06
2.65271e-06
2.32705e-06
2.05651e-06
1.89225e-06
1.60569e-06
1.87842e-06
1.25162e-06
8.6756e-06
8.40479e-06
8.12852e-06
7.81783e-06
7.50866e-06
7.19523e-06
6.88135e-06
6.57959e-06
6.29305e-06
6.0191e-06
5.75464e-06
5.49792e-06
5.24497e-06
4.99003e-06
4.72966e-06
4.46014e-06
4.17831e-06
3.88301e-06
3.57353e-06
3.25091e-06
2.91772e-06
2.57851e-06
2.23873e-06
1.90702e-06
1.59368e-06
1.30747e-06
1.05316e-06
8.32612e-07
6.45937e-07
4.91739e-07
3.67513e-07
2.70217e-07
1.96398e-07
1.42652e-07
1.0542e-07
8.56547e-08
7.96115e-08
9.65315e-08
1.77932e-07
7.00264e-06
7.22639e-06
7.47374e-06
7.729e-06
7.98815e-06
8.25468e-06
8.51739e-06
8.76826e-06
9.00363e-06
9.21769e-06
9.40274e-06
9.55475e-06
9.66837e-06
9.73673e-06
9.75568e-06
9.71872e-06
9.6218e-06
9.46204e-06
9.23716e-06
8.95368e-06
8.60684e-06
8.19527e-06
7.73484e-06
7.23293e-06
6.68557e-06
6.09166e-06
5.46627e-06
4.83876e-06
4.24196e-06
3.6989e-06
3.21827e-06
2.80111e-06
2.44418e-06
2.15228e-06
1.89984e-06
1.74223e-06
1.51426e-06
1.48882e-06
1.45874e-06
6.7783e-06
6.56371e-06
6.34685e-06
6.10587e-06
5.86612e-06
5.6243e-06
5.38387e-06
5.15451e-06
4.93816e-06
4.73249e-06
4.53557e-06
4.3453e-06
4.15832e-06
3.97027e-06
3.77826e-06
3.57936e-06
3.37039e-06
3.14982e-06
2.91663e-06
2.67092e-06
2.41407e-06
2.14868e-06
1.879e-06
1.61213e-06
1.35701e-06
1.12122e-06
9.09227e-07
7.23206e-07
5.63869e-07
4.30766e-07
3.22409e-07
2.36684e-07
1.71035e-07
1.22745e-07
8.89495e-08
7.02996e-08
6.41371e-08
7.70057e-08
1.38713e-07
5.49122e-06
5.66982e-06
5.8681e-06
6.07373e-06
6.28433e-06
6.50205e-06
6.71883e-06
6.92783e-06
7.12721e-06
7.3118e-06
7.47634e-06
7.61748e-06
7.73138e-06
7.81252e-06
7.85745e-06
7.86128e-06
7.81997e-06
7.73051e-06
7.58975e-06
7.40135e-06
7.16156e-06
6.86703e-06
6.52731e-06
6.1494e-06
5.73066e-06
5.26912e-06
4.77538e-06
4.27128e-06
3.78204e-06
3.32741e-06
2.91726e-06
2.55541e-06
2.24077e-06
1.97877e-06
1.75085e-06
1.58847e-06
1.41844e-06
1.256e-06
1.31559e-06
5.31369e-06
5.14334e-06
4.97241e-06
4.78452e-06
4.59759e-06
4.4101e-06
4.22464e-06
4.0492e-06
3.88464e-06
3.72912e-06
3.58095e-06
3.43869e-06
3.29941e-06
3.15991e-06
3.01769e-06
2.86998e-06
2.71442e-06
2.54948e-06
2.37372e-06
2.18674e-06
1.98916e-06
1.78246e-06
1.56954e-06
1.35606e-06
1.14941e-06
9.56247e-07
7.80451e-07
6.24424e-07
4.89209e-07
3.74975e-07
2.80977e-07
2.05829e-07
1.47729e-07
1.0456e-07
7.40716e-08
5.66986e-08
5.06337e-08
6.05688e-08
1.07422e-07
4.31892e-06
4.46156e-06
4.62059e-06
4.78653e-06
4.95715e-06
5.13487e-06
5.31296e-06
5.48646e-06
5.6536e-06
5.811e-06
5.95417e-06
6.08118e-06
6.18846e-06
6.27259e-06
6.33048e-06
6.35804e-06
6.35206e-06
6.30931e-06
6.227e-06
6.10637e-06
5.9446e-06
5.7382e-06
5.49123e-06
5.21049e-06
4.89365e-06
4.53856e-06
4.15237e-06
3.75109e-06
3.35365e-06
2.97665e-06
2.62983e-06
2.31855e-06
2.04343e-06
1.80935e-06
1.60522e-06
1.44399e-06
1.30297e-06
1.11225e-06
1.11363e-06
4.17783e-06
4.04274e-06
3.90743e-06
3.76035e-06
3.61396e-06
3.46782e-06
3.32401e-06
3.18875e-06
3.06263e-06
2.94408e-06
2.83191e-06
2.72476e-06
2.62034e-06
2.51591e-06
2.40964e-06
2.29946e-06
2.18327e-06
2.05958e-06
1.92699e-06
1.78486e-06
1.6332e-06
1.47271e-06
1.30529e-06
1.13525e-06
9.68624e-07
8.11037e-07
6.66162e-07
5.36004e-07
4.21889e-07
3.24383e-07
2.43264e-07
1.7772e-07
1.26561e-07
8.8171e-08
6.08326e-08
4.48483e-08
3.90645e-08
4.68655e-08
8.25921e-08
3.40596e-06
3.52e-06
3.64761e-06
3.78164e-06
3.91982e-06
4.06469e-06
4.21063e-06
4.35391e-06
4.49343e-06
4.62624e-06
4.74927e-06
4.86094e-06
4.95864e-06
5.03986e-06
5.10192e-06
5.1421e-06
5.15733e-06
5.14487e-06
5.10223e-06
5.02885e-06
4.92354e-06
4.78197e-06
4.60527e-06
4.39949e-06
4.16305e-06
3.89303e-06
3.59401e-06
3.27752e-06
2.95773e-06
2.64793e-06
2.35737e-06
2.09181e-06
1.85312e-06
1.64567e-06
1.46291e-06
1.30975e-06
1.17961e-06
1.00078e-06
9.4409e-07
3.29365e-06
3.18626e-06
3.07883e-06
2.96333e-06
2.84826e-06
2.73372e-06
2.62173e-06
2.51692e-06
2.41957e-06
2.32857e-06
2.24292e-06
2.16145e-06
2.08238e-06
2.0038e-06
1.92405e-06
1.84133e-06
1.75409e-06
1.66104e-06
1.5609e-06
1.45275e-06
1.3364e-06
1.21205e-06
1.08088e-06
9.46043e-07
8.12387e-07
6.84457e-07
5.65583e-07
4.57542e-07
3.61735e-07
2.78917e-07
2.09264e-07
1.52388e-07
1.07561e-07
7.36004e-08
4.92361e-08
3.47017e-08
2.9331e-08
3.56164e-08
6.30955e-08
2.69233e-06
2.78374e-06
2.88624e-06
2.99435e-06
3.10634e-06
3.2242e-06
3.34359e-06
3.46145e-06
3.57738e-06
3.68868e-06
3.79332e-06
3.8899e-06
3.9768e-06
4.05172e-06
4.11301e-06
4.15846e-06
4.1855e-06
4.19191e-06
4.17536e-06
4.13459e-06
4.06915e-06
3.97516e-06
3.85135e-06
3.7031e-06
3.5289e-06
3.32577e-06
3.09646e-06
2.84916e-06
2.59434e-06
2.34224e-06
2.101e-06
1.87636e-06
1.67095e-06
1.48838e-06
1.32526e-06
1.18338e-06
1.05901e-06
8.9844e-07
8.10062e-07
2.60297e-06
2.51737e-06
2.43181e-06
2.34086e-06
2.25011e-06
2.15997e-06
2.07239e-06
1.99065e-06
1.91508e-06
1.84473e-06
1.77888e-06
1.71651e-06
1.65624e-06
1.59656e-06
1.53624e-06
1.47387e-06
1.40807e-06
1.33774e-06
1.2619e-06
1.17962e-06
1.09042e-06
9.94175e-07
8.91567e-07
7.84939e-07
6.78082e-07
5.7478e-07
4.77659e-07
3.88434e-07
3.08395e-07
2.3841e-07
1.78909e-07
1.29801e-07
9.07065e-08
6.08262e-08
3.92557e-08
2.61894e-08
2.13192e-08
2.65169e-08
4.7893e-08
2.1328e-06
2.20612e-06
2.28858e-06
2.37575e-06
2.46645e-06
2.56229e-06
2.6597e-06
2.75656e-06
2.85239e-06
2.94524e-06
3.03342e-06
3.11605e-06
3.19187e-06
3.25918e-06
3.31682e-06
3.36291e-06
3.3955e-06
3.41289e-06
3.41293e-06
3.39425e-06
3.35655e-06
3.29654e-06
3.21214e-06
3.10721e-06
2.98073e-06
2.82981e-06
2.65585e-06
2.46451e-06
2.26333e-06
2.06015e-06
1.86169e-06
1.67324e-06
1.49783e-06
1.33858e-06
1.19349e-06
1.06391e-06
9.45957e-07
8.01044e-07
6.99808e-07
2.06164e-06
1.99334e-06
1.92504e-06
1.8532e-06
1.7814e-06
1.71019e-06
1.6414e-06
1.57742e-06
1.51843e-06
1.46367e-06
1.41263e-06
1.36454e-06
1.31829e-06
1.27268e-06
1.22669e-06
1.17932e-06
1.12944e-06
1.0762e-06
1.01856e-06
9.55798e-07
8.87391e-07
8.1302e-07
7.32928e-07
6.48871e-07
5.63718e-07
4.8055e-07
4.01534e-07
3.2814e-07
2.61557e-07
2.027e-07
1.52098e-07
1.09893e-07
7.59655e-08
4.98128e-08
3.08335e-08
1.92116e-08
1.48893e-08
1.92965e-08
3.6161e-08
1.69287e-06
1.75166e-06
1.81809e-06
1.88835e-06
1.96181e-06
2.03971e-06
2.11905e-06
2.19851e-06
2.27741e-06
2.35454e-06
2.42838e-06
2.49844e-06
2.5636e-06
2.6229e-06
2.67524e-06
2.71923e-06
2.75356e-06
2.77654e-06
2.78671e-06
2.78249e-06
2.76379e-06
2.72765e-06
2.67198e-06
2.59924e-06
2.50893e-06
2.39838e-06
2.26789e-06
2.12136e-06
1.96405e-06
1.80178e-06
1.64004e-06
1.48337e-06
1.33455e-06
1.19681e-06
1.06864e-06
9.51341e-07
8.41208e-07
7.09786e-07
6.0577e-07
1.63604e-06
1.58153e-06
1.52696e-06
1.47003e-06
1.4131e-06
1.35674e-06
1.30245e-06
1.25214e-06
1.20583e-06
1.16297e-06
1.12317e-06
1.08581e-06
1.05002e-06
1.01493e-06
9.7971e-07
9.43521e-07
9.05514e-07
8.64942e-07
8.21029e-07
7.73075e-07
7.20533e-07
6.63051e-07
6.00629e-07
5.3448e-07
4.66823e-07
4.00078e-07
3.36014e-07
2.75891e-07
2.20752e-07
1.71476e-07
1.28646e-07
9.25472e-08
6.32498e-08
4.04796e-08
2.38812e-08
1.36448e-08
9.87913e-09
1.36912e-08
2.71924e-08
1.346e-06
1.39323e-06
1.44668e-06
1.50338e-06
1.56283e-06
1.62604e-06
1.69069e-06
1.75567e-06
1.82051e-06
1.88426e-06
1.94581e-06
2.00472e-06
2.06031e-06
2.11173e-06
2.15821e-06
2.19877e-06
2.23226e-06
2.25747e-06
2.2732e-06
2.27802e-06
2.27177e-06
2.25215e-06
2.21702e-06
2.16812e-06
2.10483e-06
2.02489e-06
1.92816e-06
1.81712e-06
1.69533e-06
1.56697e-06
1.43629e-06
1.30714e-06
1.18202e-06
1.06357e-06
9.51311e-07
8.4578e-07
7.44459e-07
6.25615e-07
5.2413e-07
1.30056e-06
1.25706e-06
1.21342e-06
1.16814e-06
1.12293e-06
1.07822e-06
1.03525e-06
9.9552e-07
9.59007e-07
9.25301e-07
8.9409e-07
8.64879e-07
8.37017e-07
8.09798e-07
7.82639e-07
7.54837e-07
7.25716e-07
6.94687e-07
6.61103e-07
6.2437e-07
5.83992e-07
5.39536e-07
4.90902e-07
4.38915e-07
3.85241e-07
3.31839e-07
2.80075e-07
2.31004e-07
1.85526e-07
1.4444e-07
1.08353e-07
7.76155e-08
5.24341e-08
3.271e-08
1.8281e-08
9.34602e-09
6.11892e-09
9.461e-09
2.04169e-08
1.07185e-06
1.10985e-06
1.15285e-06
1.19862e-06
1.24674e-06
1.29798e-06
1.35062e-06
1.40367e-06
1.45687e-06
1.5094e-06
1.5605e-06
1.60978e-06
1.65676e-06
1.70079e-06
1.74139e-06
1.77769e-06
1.809e-06
1.8343e-06
1.85259e-06
1.86265e-06
1.86432e-06
1.85579e-06
1.83516e-06
1.80341e-06
1.76009e-06
1.70326e-06
1.63248e-06
1.54919e-06
1.45578e-06
1.35519e-06
1.25055e-06
1.14491e-06
1.04051e-06
9.39526e-07
8.41823e-07
7.4777e-07
6.55646e-07
5.49038e-07
4.53135e-07
1.03552e-06
1.00075e-06
9.6586e-07
9.29748e-07
8.93798e-07
8.58263e-07
8.24159e-07
7.92672e-07
7.63777e-07
7.37127e-07
7.12508e-07
6.89574e-07
6.67765e-07
6.46521e-07
6.25427e-07
6.03927e-07
5.81503e-07
5.57686e-07
5.31922e-07
5.03699e-07
4.72596e-07
4.38185e-07
4.00294e-07
3.59484e-07
3.1701e-07
2.74355e-07
2.32652e-07
1.92725e-07
1.55352e-07
1.21235e-07
9.09567e-08
6.49068e-08
4.33651e-08
2.63711e-08
1.38995e-08
6.16176e-09
3.43274e-09
6.37901e-09
1.53689e-08
8.5476e-07
8.85313e-07
9.19944e-07
9.56861e-07
9.95797e-07
1.03736e-06
1.08013e-06
1.12339e-06
1.16697e-06
1.21015e-06
1.25238e-06
1.2934e-06
1.33283e-06
1.37021e-06
1.40517e-06
1.43717e-06
1.46555e-06
1.48956e-06
1.5084e-06
1.52116e-06
1.52757e-06
1.52626e-06
1.51562e-06
1.49606e-06
1.46722e-06
1.42756e-06
1.37648e-06
1.31469e-06
1.24374e-06
1.1656e-06
1.08253e-06
9.96857e-07
9.10366e-07
8.24898e-07
7.40508e-07
6.57514e-07
5.7459e-07
4.7968e-07
3.91337e-07
8.25669e-07
7.97857e-07
7.6994e-07
7.41126e-07
7.12475e-07
6.84186e-07
6.57072e-07
6.32045e-07
6.09095e-07
5.87944e-07
5.68467e-07
5.50318e-07
5.33131e-07
5.16502e-07
5.00045e-07
4.83334e-07
4.65971e-07
4.47588e-07
4.27741e-07
4.06002e-07
3.81996e-07
3.55353e-07
3.25823e-07
2.93783e-07
2.6021e-07
2.26217e-07
1.92703e-07
1.60318e-07
1.2971e-07
1.01492e-07
7.61921e-08
5.42177e-08
3.58774e-08
2.13097e-08
1.05862e-08
3.93005e-09
1.64206e-09
4.2378e-09
1.1666e-08
6.8249e-07
7.07077e-07
7.34949e-07
7.64737e-07
7.96224e-07
8.29901e-07
8.64638e-07
8.99878e-07
9.355e-07
9.70904e-07
1.00571e-06
1.03971e-06
1.07263e-06
1.10414e-06
1.13396e-06
1.16169e-06
1.18684e-06
1.20884e-06
1.22711e-06
1.24089e-06
1.24985e-06
1.25301e-06
1.24897e-06
1.23786e-06
1.21938e-06
1.19232e-06
1.15598e-06
1.11069e-06
1.05732e-06
9.97147e-07
9.31723e-07
8.62762e-07
7.91683e-07
7.19852e-07
6.47534e-07
5.7487e-07
5.01127e-07
4.17426e-07
3.37529e-07
6.59185e-07
6.36939e-07
6.14578e-07
5.91566e-07
5.68713e-07
5.46164e-07
5.24566e-07
5.04638e-07
4.86361e-07
4.69518e-07
4.54022e-07
4.39634e-07
4.26038e-07
4.12922e-07
4.00005e-07
3.86958e-07
3.73468e-07
3.59228e-07
3.43879e-07
3.27097e-07
3.0854e-07
2.87866e-07
2.64842e-07
2.39706e-07
2.13176e-07
1.86136e-07
1.59256e-07
1.33062e-07
1.08078e-07
8.48289e-08
6.37808e-08
4.53223e-08
2.9782e-08
1.73569e-08
8.18264e-09
2.48946e-09
5.79864e-10
2.84748e-09
9.00277e-09
5.4555e-07
5.65334e-07
5.87763e-07
6.11805e-07
6.3726e-07
6.64531e-07
6.9273e-07
7.2141e-07
7.5047e-07
7.79465e-07
8.08078e-07
8.36161e-07
8.63509e-07
8.89893e-07
9.15109e-07
9.38876e-07
9.6082e-07
9.80531e-07
9.97525e-07
1.01118e-06
1.02119e-06
1.02688e-06
1.02709e-06
1.02169e-06
1.01048e-06
9.92477e-07
9.67061e-07
9.34248e-07
8.94493e-07