/*--------------------------------*- C++ -*----------------------------------*\
| =========                 |                                                 |
| \\      /  F ield         | OpenFOAM: The Open Source CFD Toolbox           |
|  \\    /   O peration     | Version:  2312                                  |
|   \\  /    A nd           | Website:  www.openfoam.com                      |
|    \\/     M anipulation  |                                                 |
\*---------------------------------------------------------------------------*/
FoamFile
{
    version     2.0;
    format      ascii;
    arch        "LSB;label=32;scalar=64";
    class       volVectorField;
    location    "400";
    object      U;
}
// * * * * * * * * * * * * * * * * * * * * * * * * * * * * * * * * * * * * * //

dimensions      [0 1 -1 0 0 0 0];

internalField   nonuniform List<vector> 
10720
(
(0.227313 27.647 1.44213e-17)
(1.96455 29.9432 -1.32687e-17)
(4.13735 32.1616 0)
(6.63499 33.8946 -4.01052e-16)
(9.39108 35.2247 4.47779e-16)
(12.3373 36.1101 3.26555e-16)
(15.3188 36.4524 4.53379e-16)
(18.2397 36.2859 0)
(21.0151 35.6757 0)
(23.5619 34.6566 0)
(25.8434 33.3238 1.213e-16)
(27.8127 31.7263 0)
(29.4229 29.8609 2.44534e-15)
(30.6576 27.7678 0)
(31.4739 25.4622 0)
(31.8438 22.9751 0)
(31.6969 20.3078 -4.42958e-15)
(30.9558 17.4968 -6.86061e-15)
(29.4862 14.5542 6.41625e-15)
(27.1602 11.5446 0)
(23.8372 8.5323 6.38086e-15)
(19.5671 5.6776 -1.47611e-14)
(14.891 3.22867 9.1781e-15)
(11.4433 1.44112 -3.36363e-16)
(10.0593 0.261221 0)
(10.6963 -0.359107 4.65643e-15)
(12.1173 -0.599926 6.00323e-17)
(13.6264 -0.72006 -1.40913e-15)
(14.8704 -0.871451 -4.56061e-15)
(15.6936 -1.08661 -1.5084e-14)
(16.1264 -1.34675 6.28521e-15)
(16.2635 -1.62014 1.08488e-14)
(16.0621 -1.86592 8.83864e-15)
(15.5552 -2.06057 2.89352e-14)
(14.7259 -2.17966 -1.1253e-14)
(13.5773 -2.20859 -7.77225e-17)
(11.7315 -2.06545 2.24742e-17)
(9.73192 -1.8144 2.81521e-15)
(3.62812 -1.08802 1.25475e-14)
(-1.14269 25.1965 -7.37288e-19)
(-2.24856 22.436 -1.33404e-17)
(-3.01403 19.3292 5.82497e-17)
(-3.31645 15.733 -1.69161e-16)
(-2.99627 12.0183 -5.68388e-16)
(-2.02374 8.3207 1.01479e-15)
(-0.486657 4.95176 5.32846e-15)
(1.36442 2.18879 3.17758e-15)
(3.32269 -0.139543 0)
(5.55304 -2.15992 0)
(7.8488 -3.66178 2.11883e-15)
(9.96514 -4.62796 7.70591e-16)
(11.8356 -5.18648 -1.28227e-15)
(13.4723 -5.46195 1.05423e-15)
(14.9001 -5.55118 1.73896e-15)
(16.1499 -5.51723 1.12061e-15)
(17.2526 -5.4077 1.42694e-15)
(18.2406 -5.25151 9.46688e-16)
(19.145 -5.06815 0)
(19.9876 -4.86041 0)
(20.7866 -4.6298 -1.29974e-15)
(21.5528 -4.36685 -5.90619e-17)
(22.2875 -4.05759 8.66233e-16)
(22.9598 -3.67699 -5.89903e-16)
(23.5021 -3.22513 2.72648e-17)
(23.897 -2.74548 0)
(24.175 -2.27773 7.73583e-17)
(24.3721 -1.77844 0)
(24.5037 -1.18114 0)
(24.5699 -0.51306 -9.6857e-18)
(24.5504 0.159841 0)
(24.4305 0.789602 1.17447e-16)
(24.2114 1.3536 1.62022e-16)
(23.9018 1.84542 4.60271e-16)
(23.5017 2.26734 1.22093e-16)
(23.0077 2.62726 -1.09062e-18)
(22.3174 2.92666 0)
(21.3672 3.13421 4.09226e-15)
(18.7648 3.31175 7.8134e-15)
(7.15396 23.9923 -8.25522e-18)
(9.04435 25.7193 -2.39754e-19)
(11.3477 27.2834 0)
(14.0034 28.58 0)
(16.8651 29.5493 -1.31551e-16)
(19.9374 30.1311 -3.13387e-16)
(23.108 30.2789 0)
(26.2441 30.014 0)
(29.292 29.346 6.71034e-16)
(32.1687 28.327 0)
(34.8181 27.0096 2.48061e-15)
(37.2334 25.4924 0)
(39.4232 23.8655 8.82619e-16)
(41.3993 22.1613 -8.66709e-16)
(43.1487 20.4109 1.73706e-15)
(44.6308 18.6527 -3.45069e-15)
(45.8266 16.9102 3.65761e-15)
(46.6992 15.2126 3.3237e-15)
(47.1875 13.5671 3.2284e-15)
(47.1791 11.9783 1.96076e-16)
(46.4799 10.3966 -3.35551e-15)
(44.861 8.72368 3.29754e-15)
(42.1804 6.82162 -1.9843e-16)
(38.6418 4.75771 0)
(35.1091 2.8661 0)
(31.9578 1.34557 0)
(29.159 0.240041 1.94861e-16)
(26.7768 -0.550279 -4.26448e-17)
(24.9207 -1.15046 2.61645e-15)
(23.5678 -1.62208 2.67235e-17)
(22.5404 -1.99159 -1.9895e-17)
(21.6145 -2.27791 -7.64979e-17)
(20.6909 -2.50239 5.28755e-15)
(19.6851 -2.67118 -8.4548e-15)
(18.5069 -2.76945 -4.35843e-17)
(17.1188 -2.77946 -8.94202e-15)
(15.1491 -2.63254 0)
(13.064 -2.36442 -6.75662e-16)
(7.02283 -1.47009 5.60211e-15)
(5.55903 22.1531 1.08832e-17)
(4.17397 20.1084 -4.96823e-17)
(2.96018 17.7146 -6.03029e-16)
(2.0396 14.9944 7.47458e-16)
(1.59181 12.0367 0)
(1.70559 8.98109 -1.63519e-15)
(2.40265 6.03979 -1.2317e-15)
(3.58771 3.43887 -9.54524e-15)
(5.08028 1.14185 2.75915e-15)
(6.84374 -0.758234 -1.99585e-15)
(8.73747 -2.12441 2.45877e-15)
(10.5866 -3.01234 -6.89886e-16)
(12.3097 -3.54996 0)
(13.8829 -3.83702 -4.51391e-16)
(15.3008 -3.95452 5.98235e-17)
(16.5749 -3.95473 -9.96379e-16)
(17.7216 -3.88207 0)
(18.7646 -3.76161 0)
(19.7282 -3.6112 -1.02445e-16)
(20.6353 -3.42809 9.87308e-17)
(21.5012 -3.20995 -1.15949e-15)
(22.3383 -2.93941 -1.24679e-16)
(23.1483 -2.59509 5.46883e-17)
(23.9088 -2.13663 5.93197e-16)
(24.5677 -1.57144 -4.03849e-16)
(25.099 -0.963324 -2.86721e-16)
(25.5135 -0.336454 0)
(25.8055 0.27377 0)
(25.967 0.821307 0)
(26.0005 1.28865 9.64991e-18)
(25.935 1.684 0)
(25.7971 2.03013 0)
(25.5971 2.3467 -2.38484e-16)
(25.3362 2.64221 -1.32138e-16)
(25.0049 2.92011 -1.00137e-16)
(24.6045 3.18329 4.74249e-16)
(24.0359 3.42892 -1.81105e-15)
(23.4731 3.64811 -3.20831e-15)
(21.4976 3.71658 -5.38323e-15)
(8.30382 22.0997 -1.75029e-18)
(9.64535 23.6254 9.2361e-18)
(11.2778 25.1114 -8.39554e-18)
(13.1539 26.4854 -3.81785e-17)
(15.2214 27.6287 -1.72401e-16)
(17.4794 28.518 6.02752e-16)
(19.8536 29.1144 -4.22631e-16)
(22.2694 29.3803 -4.98581e-16)
(24.6698 29.3158 8.78039e-18)
(26.9969 28.9329 -6.56951e-16)
(29.1975 28.2514 6.1414e-16)
(31.2377 27.2963 -1.59939e-15)
(33.0901 26.0977 -7.60994e-16)
(34.7378 24.6883 0)
(36.179 23.1023 -1.8469e-15)
(37.4728 21.3507 3.69233e-15)
(38.6497 19.4639 0)
(39.7296 17.498 -6.94234e-15)
(40.7729 15.5026 -3.43258e-15)
(41.8252 13.5514 3.95364e-16)
(42.9476 11.6857 -3.80395e-16)
(44.0595 9.89374 -1.72987e-16)
(44.8713 8.0354 -2.44739e-15)
(44.9382 6.02668 1.27718e-15)
(44.1678 4.02969 0)
(42.8141 2.28455 1.22321e-15)
(41.0999 0.902762 -1.46029e-16)
(39.0749 -0.182908 0)
(36.698 -1.07307 1.9248e-15)
(34.0089 -1.80048 3.55732e-15)
(31.2177 -2.36334 -6.16892e-15)
(28.6114 -2.76887 -5.15564e-15)
(26.3418 -3.03925 -1.02115e-16)
(24.3388 -3.19773 -6.74882e-15)
(22.4116 -3.25676 -5.15912e-15)
(20.4313 -3.21344 6.9892e-15)
(18.0247 -3.02196 0)
(15.5366 -2.65273 -4.55987e-16)
(9.73834 -1.88336 -7.75041e-15)
(7.20963 20.4925 -1.62878e-17)
(6.25004 18.7378 -6.06043e-17)
(5.45268 16.6726 2.42028e-16)
(4.81238 14.3622 0)
(4.4842 11.8813 4.63121e-16)
(4.51382 9.29939 0)
(4.92875 6.7536 3.51328e-15)
(5.69824 4.40204 2.07056e-15)
(6.78419 2.2967 1.79748e-15)
(8.13894 0.507243 0)
(9.63651 -0.905589 -2.51751e-15)
(11.1564 -1.96301 -5.30854e-16)
(12.6271 -2.72629 2.3844e-15)
(14.0131 -3.25346 0)
(15.2976 -3.59509 -1.09291e-15)
(16.4787 -3.7945 -3.28722e-16)
(17.5627 -3.88966 1.34853e-15)
(18.5631 -3.90677 6.9634e-16)
(19.497 -3.86401 1.89878e-16)
(20.3814 -3.76665 -1.03622e-16)
(21.2291 -3.6168 1.06209e-15)
(22.0489 -3.40625 0)
(22.8409 -3.12155 0)
(23.5858 -2.7423 2.65124e-17)
(24.2405 -2.28355 0)
(24.7807 -1.79447 5.97767e-16)
(25.2165 -1.29722 -7.60859e-18)
(25.5617 -0.796783 -3.15631e-17)
(25.8216 -0.289634 0)
(25.9965 0.226062 -1.00462e-18)
(26.0886 0.75003 -8.86719e-18)
(26.0991 1.27189 0)
(26.028 1.7735 1.06118e-16)
(25.8751 2.23925 0)
(25.6309 2.66169 0)
(25.2955 3.03919 4.3093e-17)
(24.7698 3.37351 -6.08712e-17)
(24.1693 3.6261 3.36021e-15)
(22.3696 3.7274 1.07646e-14)
(10.905 20.2244 -1.30581e-17)
(12.1614 21.5194 -1.07173e-17)
(13.6681 22.7806 -1.74552e-19)
(15.4018 23.9338 -6.17133e-18)
(17.3162 24.8886 0)
(19.4176 25.6263 0)
(21.65 26.1028 -7.01416e-16)
(23.9531 26.2832 8.46883e-16)
(26.2804 26.1595 0)
(28.5767 25.7336 -1.03586e-15)
(30.791 25.0184 -1.32203e-15)
(32.8838 24.0371 -1.24815e-15)
(34.8196 22.8239 1.49517e-15)
(36.5717 21.416 1.41121e-15)
(38.1296 19.8462 0)
(39.4537 18.1664 2.23657e-15)
(40.4986 16.4346 7.65925e-16)
(41.2603 14.6875 6.17867e-15)
(41.7488 12.9621 3.731e-16)
(42.0123 11.2931 -3.66954e-16)
(42.1493 9.70729 3.10177e-15)
(42.3132 8.19886 -5.04346e-16)
(42.6084 6.68409 2.78067e-15)
(42.8883 5.07461 1.17633e-15)
(42.848 3.43637 -7.25739e-17)
(42.398 1.95643 -1.09529e-15)
(41.6993 0.742409 7.96188e-18)
(40.9077 -0.253992 -8.05982e-18)
(40.0005 -1.12313 -1.77789e-15)
(38.8187 -1.89592 -4.64145e-17)
(37.1753 -2.55641 2.89681e-15)
(34.9669 -3.07702 -4.81733e-15)
(32.2949 -3.43976 -3.77267e-15)
(29.4564 -3.64619 -3.08007e-18)
(26.6828 -3.70886 4.56029e-15)
(24.005 -3.63042 0)
(21.0744 -3.39196 3.2409e-15)
(18.0878 -2.90979 3.70663e-16)
(12.3187 -2.2018 3.10856e-15)
(9.84987 18.8697 -2.9805e-17)
(8.90318 17.4008 8.13688e-17)
(8.07697 15.6681 3.52414e-16)
(7.38579 13.711 0)
(6.96047 11.5991 -4.08871e-16)
(6.83597 9.3807 0)
(7.03836 7.15955 -2.71556e-15)
(7.54196 5.05824 -1.18506e-16)
(8.32465 3.13443 1.28661e-15)
(9.35356 1.45262 1.12286e-15)
(10.5377 0.0660291 3.7925e-17)
(11.7926 -1.01957 1.86395e-15)
(13.0582 -1.83598 -1.19693e-15)
(14.2937 -2.42409 3.7925e-16)
(15.4739 -2.82326 1.28651e-15)
(16.5866 -3.07257 1.4104e-15)
(17.6289 -3.20614 -1.25872e-15)
(18.6051 -3.25103 7.61248e-18)
(19.525 -3.22692 0)
(20.3999 -3.14325 1.29766e-15)
(21.2393 -3.00324 6.30037e-17)
(22.0491 -2.80141 -9.65268e-16)
(22.8287 -2.52653 0)
(23.5615 -2.16106 2.66997e-17)
(24.2117 -1.71068 0)
(24.7554 -1.21289 -2.87396e-16)
(25.1975 -0.69076 0)
(25.549 -0.155344 3.01243e-17)
(25.8149 0.382867 -8.02404e-19)
(25.9979 0.908833 3.99176e-19)
(26.1032 1.40673 8.5407e-18)
(26.1373 1.86089 1.83773e-19)
(26.1041 2.26812 0)
(26.0052 2.63151 3.03799e-17)
(25.831 2.95774 1.09416e-18)
(25.5776 3.2512 -5.736e-16)
(25.1463 3.5203 4.31717e-15)
(24.6142 3.69604 1.07703e-17)
(22.9849 3.75935 0)
(12.4356 18.8256 -1.81863e-17)
(13.4919 19.9749 -3.63546e-18)
(14.7658 21.117 -1.56969e-19)
(16.2229 22.1895 1.26504e-16)
(17.8231 23.1098 -4.75823e-17)
(19.5872 23.8732 -1.84416e-16)
(21.4685 24.4402 3.00691e-16)
(23.4199 24.7753 0)
(25.4109 24.8686 1.19528e-15)
(27.395 24.7135 5.58955e-16)
(29.331 24.3115 0)
(31.1841 23.6743 1.20184e-15)
(32.9202 22.8211 -6.38207e-16)
(34.5125 21.7733 1.78065e-15)
(35.94 20.5547 0)
(37.1823 19.1889 -2.97702e-15)
(38.2516 17.6716 2.79812e-15)
(39.1423 16.0257 -1.65167e-16)
(39.8469 14.2843 0)
(40.3587 12.4938 3.00461e-15)
(40.6838 10.6938 -3.01717e-15)
(40.8485 8.91488 -1.56298e-16)
(40.8956 7.14921 -2.39234e-15)
(40.818 5.39084 -2.26591e-15)
(40.5226 3.71116 0)
(39.9707 2.23079 0)
(39.2741 1.00718 -2.57894e-16)
(38.5768 -0.00797377 -2.8545e-17)
(37.9461 -0.895388 1.75404e-15)
(37.3598 -1.68994 -4.59914e-17)
(36.7509 -2.39452 4.56898e-17)
(35.9823 -3.0052 4.69988e-15)
(34.8191 -3.50414 0)
(33.0169 -3.85317 1.21021e-14)
(30.526 -4.01661 -3.95258e-17)
(27.5893 -3.97645 0)
(24.2474 -3.73119 -1.64697e-17)
(20.7883 -3.1623 0)
(14.9247 -2.46984 -2.69102e-15)
(11.5428 17.6297 2.95411e-17)
(10.7393 16.3463 -1.86015e-16)
(10.0176 14.8316 -4.40323e-17)
(9.38609 13.124 8.20646e-16)
(8.9607 11.2879 -1.29553e-15)
(8.76624 9.3514 -1.69286e-15)
(8.83378 7.39032 2.05661e-15)
(9.15435 5.5043 -2.18997e-15)
(9.71853 3.75574 -9.71634e-16)
(10.5023 2.19691 -8.55898e-16)
(11.4407 0.868526 1.64204e-15)
(12.471 -0.216337 -1.56776e-15)
(13.5452 -1.07518 -6.83551e-16)
(14.6254 -1.73503 6.64657e-16)
(15.6841 -2.22166 -1.43719e-15)
(16.7052 -2.56474 2.64038e-16)
(17.6806 -2.79059 0)
(18.6082 -2.92146 -9.94432e-16)
(19.4922 -2.974 3.51316e-16)
(20.3393 -2.95804 -1.3609e-15)
(21.1556 -2.87699 0)
(21.9449 -2.72765 8.39762e-16)
(22.7052 -2.50189 6.57712e-16)
(23.4217 -2.18892 -4.92188e-16)
(24.0639 -1.79482 0)
(24.6086 -1.35144 -3.15883e-16)
(25.0564 -0.88403 0)
(25.4161 -0.405349 0)
(25.6917 0.0752281 0)
(25.8851 0.547582 2.40851e-17)
(26.0001 1.0035 0)
(26.0419 1.44299 0)
(26.0147 1.86612 -1.47337e-17)
(25.9218 2.26939 -3.05925e-17)
(25.7576 2.64969 0)
(25.5243 3.00281 -6.72582e-16)
(25.1357 3.3289 8.46253e-17)
(24.6771 3.54899 0)
(23.3015 3.66102 -5.39135e-15)
(13.9267 17.5917 2.23104e-17)
(14.8866 18.6088 -1.58406e-17)
(16.0396 19.6252 0)
(17.3538 20.5825 8.92742e-18)
(18.7905 21.4074 -1.1228e-16)
(20.3794 22.1003 1.73277e-16)
(22.0803 22.6231 4.66066e-17)
(23.8553 22.9437 -7.50201e-16)
(25.6837 23.0487 -9.48898e-17)
(27.5275 22.9271 1.1411e-15)
(29.3511 22.5746 -4.07715e-16)
(31.1249 21.9943 9.25261e-16)
(32.8157 21.1968 4.6486e-16)
(34.3952 20.1966 3.34531e-16)
(35.8391 19.0125 0)
(37.1278 17.6657 -6.44631e-16)
(38.2343 16.1964 -1.41284e-15)
(39.1311 14.6553 -5.18316e-15)
(39.8079 13.0823 1.52845e-15)
(40.2721 11.5068 -1.93105e-15)
(40.5417 9.94904 -3.0127e-16)
(40.6417 8.40652 0)
(40.5816 6.84791 2.15114e-15)
(40.3343 5.25425 1.39375e-16)
(39.8532 3.68838 -6.48739e-17)
(39.14 2.26984 -9.25926e-16)
(38.285 1.0737 2.14979e-16)
(37.4039 0.077636 4.48599e-16)
(36.5567 -0.784057 -1.67449e-15)
(35.7534 -1.54793 -8.90345e-17)
(35.0015 -2.22195 2.83801e-15)
(34.3249 -2.81045 4.55665e-15)
(33.7079 -3.31776 0)
(33.0174 -3.73755 -1.92328e-17)
(31.9168 -4.0343 -4.57913e-15)
(30.0277 -4.13083 0)
(27.0863 -3.96966 -5.90646e-15)
(23.5157 -3.38269 0)
(17.5854 -2.71561 2.41965e-15)
(13.107 16.5371 -2.94459e-17)
(12.3658 15.4123 7.54559e-17)
(11.6863 14.0809 -1.87396e-16)
(11.0782 12.5764 0)
(10.644 10.9597 5.50528e-16)
(10.3999 9.24905 2.76884e-15)
(10.3732 7.50027 0)
(10.5651 5.80007 -1.57074e-15)
(10.9701 4.2107 -1.49451e-15)
(11.5678 2.7712 1.49305e-15)
(12.3122 1.51454 -5.94279e-17)
(13.1562 0.457811 6.46824e-16)
(14.0634 -0.407418 3.37049e-17)
(15.0016 -1.09774 1.69861e-15)
(15.945 -1.62896 1.51946e-15)
(16.8762 -2.02233 -1.42436e-15)
(17.7842 -2.2978 1.99987e-16)
(18.6627 -2.47365 -3.7199e-16)
(19.5108 -2.56455 1.72293e-16)
(20.331 -2.58038 9.99001e-16)
(21.1259 -2.52571 1.29331e-16)
(21.8966 -2.39966 -9.28204e-17)
(22.6398 -2.19656 -5.58248e-16)
(23.3417 -1.90896 0)
(23.9761 -1.54127 2.25866e-17)
(24.5208 -1.1188 5.91193e-16)
(24.973 -0.664954 -2.95922e-18)
(25.3388 -0.192139 2.96287e-18)
(25.6213 0.290654 0)
(25.8222 0.772908 -2.27523e-17)
(25.9447 1.24529 0)
(25.9938 1.69806 0)
(25.9733 2.12131 1.30608e-17)
(25.8861 2.509 9.79139e-17)
(25.7266 2.85955 0)
(25.4952 3.16968 6.39443e-16)
(25.1127 3.44515 -4.49948e-15)
(24.6513 3.59203 2.18572e-17)
(23.4323 3.6288 5.15434e-15)
(15.126 16.5486 4.05094e-19)
(15.9878 17.4619 -1.50604e-17)
(17.0228 18.3823 5.88247e-18)
(18.1971 19.2552 -5.71113e-18)
(19.4723 20.0152 7.69266e-17)
(20.8834 20.6687 0)
(22.3938 21.1825 -3.33192e-16)
(23.9714 21.5274 6.57053e-18)
(25.6037 21.6923 -3.41258e-16)
(27.2582 21.6653 -6.91594e-16)
(28.9064 21.4394 0)
(30.5241 21.0143 -1.67948e-15)
(32.081 20.3949 -1.44631e-15)
(33.5502 19.5906 -3.52728e-15)
(34.908 18.6156 0)
(36.1301 17.4894 -2.19367e-15)
(37.1971 16.2325 -2.30311e-15)
(38.1009 14.8546 2.44964e-15)
(38.8327 13.3785 -2.40464e-15)
(39.3886 11.8369 2.22922e-15)
(39.7731 10.2616 2.75179e-16)
(39.9941 8.67747 -2.36604e-15)
(40.0491 7.08568 0)
(39.9014 5.48701 -2.10199e-15)
(39.5021 3.93388 1.26341e-16)
(38.853 2.52202 9.64805e-16)
(38.0324 1.31651 0)
(37.1403 0.30345 -3.29345e-17)
(36.2275 -0.572678 7.11873e-17)
(35.2966 -1.34503 2.74309e-15)
(34.3479 -2.02012 -2.54341e-15)
(33.4075 -2.60131 -4.4059e-15)
(32.5181 -3.09391 3.71489e-15)
(31.7344 -3.50201 -6.43259e-17)
(31.0433 -3.8225 4.70681e-15)
(30.251 -4.01996 6.0857e-15)
(28.6132 -4.00919 3.0815e-15)
(25.8274 -3.51148 -8.02268e-18)
(20.1988 -2.92683 -2.98726e-18)
(14.3842 15.6039 1.18828e-17)
(13.7103 14.6026 1.45426e-16)
(13.0802 13.4153 1.95965e-16)
(12.5035 12.0724 -3.73364e-16)
(12.0724 10.6324 -1.48471e-15)
(11.7992 9.10498 4.94203e-16)
(11.7087 7.53176 1.25755e-15)
(11.8083 5.99134 3.17814e-15)
(12.095 4.54394 1.27371e-15)
(12.5513 3.2176 -1.1911e-15)
(13.1432 2.03936 -3.87593e-17)
(13.8349 1.02659 -5.72613e-16)
(14.5985 0.174555 0)
(15.4083 -0.52718 -2.71174e-17)
(16.2414 -1.08799 -9.30299e-16)
(17.0817 -1.52286 4.05649e-16)
(17.9172 -1.8462 -3.9843e-16)
(18.7389 -2.07167 0)
(19.543 -2.21084 6.02774e-16)
(20.3284 -2.27223 -1.05005e-15)
(21.0949 -2.25989 0)
(21.8413 -2.17375 7.68109e-16)
(22.5631 -2.00988 0)
(23.2474 -1.76357 -2.86672e-17)
(23.8712 -1.43908 2.86068e-17)
(24.4131 -1.05727 -2.89596e-16)
(24.8679 -0.640094 -5.36977e-18)
(25.2389 -0.200994 -3.05985e-18)
(25.5288 0.249871 6.74067e-19)
(25.7385 0.701299 -3.6809e-17)
(25.8708 1.14251 -4.33558e-17)
(25.93 1.56551 5.27885e-17)
(25.9195 1.96678 1.20757e-18)
(25.8417 2.34277 3.26126e-17)
(25.6907 2.692 0)
(25.4658 3.00999 1.37656e-17)
(25.0933 3.29799 2.10731e-15)
(24.6336 3.46062 -1.27924e-17)
(23.5071 3.50383 4.79367e-15)
(16.1811 15.63 4.47394e-18)
(16.9712 16.4539 2.27737e-17)
(17.9185 17.2878 0)
(18.9894 18.0803 -2.57831e-17)
(20.1454 18.7725 2.54524e-17)
(21.4244 19.3744 0)
(22.7931 19.855 -1.23008e-16)
(24.2239 20.1887 9.70737e-16)
(25.7097 20.3649 -1.3508e-15)
(27.2238 20.3714 4.30775e-16)
(28.7429 20.1993 5.88702e-16)
(30.2477 19.8446 2.13305e-15)
(31.7122 19.3074 1.53028e-15)
(33.1119 18.5914 1.82883e-15)
(34.4237 17.7049 4.84587e-16)
(35.6235 16.6607 1.6079e-15)
(36.6916 15.4745 2.21456e-15)
(37.6061 14.1755 2.10144e-15)
(38.3493 12.7986 -1.54161e-15)
(38.9156 11.3728 -4.70961e-15)
(39.3089 9.92149 0)
(39.5393 8.45714 8.67428e-17)
(39.6105 6.97782 1.86701e-15)
(39.4994 5.48365 2.00131e-15)
(39.1652 4.01654 -1.15599e-16)
(38.6004 2.65874 -8.59166e-16)
(37.863 1.47442 6.17494e-18)
(37.0368 0.46316 -4.3988e-16)
(36.168 -0.416857 4.65602e-17)
(35.2568 -1.19356 -5.09946e-15)
(34.2934 -1.87156 -9.10634e-18)
(33.2801 -2.45124 -6.92136e-17)
(32.2292 -2.93486 -3.56755e-15)
(31.1764 -3.32381 -6.36694e-17)
(30.1754 -3.61549 -4.52546e-15)
(29.3621 -3.7984 -1.23143e-14)
(28.5108 -3.8506 3.18459e-15)
(27.1015 -3.48933 4.02146e-16)
(22.4587 -3.06408 2.1454e-15)
(15.4962 14.7793 -5.27822e-17)
(14.8723 13.8813 -1.96838e-16)
(14.2801 12.8145 -1.42063e-16)
(13.7295 11.6058 -3.62687e-16)
(13.3039 10.3121 8.23944e-16)
(13.0123 8.93628 -5.93983e-17)
(12.8778 7.51062 -3.11121e-15)
(12.9103 6.1086 -1.07951e-15)
(13.1079 4.78659 1.70427e-17)
(13.4558 3.56428 0)
(13.9274 2.46461 -1.00804e-15)
(14.4947 1.50386 9.40745e-16)
(15.1365 0.678667 -9.06521e-16)
(15.8326 -0.0178879 -4.64496e-16)
(16.5639 -0.590795 3.87848e-16)
(17.3167 -1.05034 3.85928e-16)
(18.0793 -1.40597 1.38479e-15)
(18.842 -1.66704 -3.28157e-16)
(19.5989 -1.84204 -5.5902e-16)
(20.3465 -1.93775 0)
(21.0821 -1.95757 -8.50934e-16)
(21.8026 -1.9019 -6.3298e-16)
(22.5022 -1.76802 -1.33139e-17)
(23.1686 -1.55318 -6.83894e-17)
(23.7808 -1.26129 -2.20118e-17)
(24.3186 -0.909137 3.36514e-16)
(24.7744 -0.516718 -6.26656e-18)
(25.1495 -0.0976474 5.01369e-17)
(25.4453 0.337751 8.43803e-18)
(25.6624 0.778519 3.33914e-17)
(25.8026 1.21416 -1.27459e-17)
(25.8697 1.63647 -1.27415e-16)
(25.8665 2.03745 -1.21866e-16)
(25.7955 2.41089 -1.17372e-16)
(25.6507 2.75341 -6.97744e-18)
(25.4316 3.05764 4.23694e-18)
(25.0689 3.32356 -2.15536e-15)
(24.6199 3.44653 -3.21453e-15)
(23.5732 3.43479 -4.4146e-15)
(17.092 14.8183 -1.3728e-17)
(17.8198 15.5664 -8.52315e-18)
(18.6912 16.3265 -2.1275e-17)
(19.6724 17.0507 6.83502e-18)
(20.7254 17.6846 4.93136e-17)
(21.8889 18.2414 -1.39672e-16)
(23.1323 18.6934 4.62156e-16)
(24.4306 19.0174 0)
(25.781 19.2055 4.10842e-16)
(27.1605 19.2458 1.23284e-17)
(28.5503 19.1294 -5.03927e-16)
(29.9356 18.8511 -1.96195e-15)
(31.2938 18.4088 -7.98324e-16)
(32.6034 17.8031 0)
(33.8428 17.0389 0)
(34.9894 16.1254 0)
(36.0213 15.0775 0)
(36.9204 13.9115 -2.04594e-15)
(37.6728 12.6452 2.01573e-15)
(38.2687 11.3017 1.97247e-15)
(38.705 9.90585 -1.59107e-15)
(38.9825 8.4791 1.40184e-15)
(39.0986 7.03327 -1.46295e-15)
(39.035 5.57992 -1.08015e-16)
(38.7616 4.15653 -5.04891e-17)
(38.2721 2.82936 8.64928e-16)
(37.6129 1.65478 1.86974e-16)
(36.8562 0.639309 0)
(36.0475 -0.248825 0)
(35.1915 -1.03411 4.1748e-17)
(34.2797 -1.72114 0)
(33.3082 -2.30933 3.76909e-15)
(32.2726 -2.79898 -3.34411e-15)
(31.1718 -3.18754 -5.37028e-15)
(30.0012 -3.46797 8.43617e-15)
(28.86 -3.62189 5.9639e-15)
(27.8176 -3.64096 -3.17801e-15)
(27.2399 -3.33287 -8.52316e-16)
(23.9936 -3.08616 -2.16346e-15)
(16.4572 14.0468 0)
(15.8772 13.2352 5.49781e-17)
(15.3195 12.2692 2.69613e-16)
(14.7938 11.1733 -1.1664e-15)
(14.377 10.0023 1.02949e-15)
(14.0746 8.75404 -8.27149e-16)
(13.9097 7.4541 9.66907e-18)
(13.8931 6.17254 8.16499e-16)
(14.0229 4.96108 8.63305e-16)
(14.2869 3.83382 0)
(14.6633 2.81013 4.14777e-16)
(15.1292 1.90492 -1.26809e-15)
(15.6685 1.1149 2.00931e-15)
(16.2653 0.434885 3.65823e-16)
(16.9044 -0.137951 -7.44679e-16)
(17.5746 -0.610475 -6.93351e-16)
(18.2654 -0.988612 -6.37185e-16)
(18.9676 -1.27827 0)
(19.6744 -1.48503 0)
(20.3805 -1.61358 0)
(21.0817 -1.66635 7.937e-16)
(21.7731 -1.64353 0)
(22.4481 -1.54307 -5.11616e-16)
(23.0946 -1.36344 -6.55095e-17)
(23.6931 -1.1082 -3.91202e-16)
(24.2245 -0.79113 -2.95568e-16)
(24.6796 -0.430249 0)
(25.0576 -0.039246 -4.13298e-17)
(25.3587 0.371187 -8.88789e-18)
(25.5829 0.789911 1.64819e-18)
(25.7315 1.20604 1.13902e-16)
(25.8074 1.61032 -2.1691e-17)
(25.8132 1.99637 1.17057e-16)
(25.7508 2.35839 -1.72609e-16)
(25.6142 2.69278 0)
(25.4025 2.99155 -1.34898e-17)
(25.0509 3.25235 -5.14675e-17)
(24.6141 3.37065 3.0446e-15)
(23.6447 3.34526 -2.59189e-17)
(17.8937 14.091 1.59757e-17)
(18.5696 14.7731 0)
(19.3777 15.468 6.02619e-17)
(20.2844 16.1307 -2.52667e-17)
(21.2522 16.7108 -3.06628e-17)
(22.32 17.2236 1.30673e-16)
(23.459 17.6437 -2.03222e-16)
(24.6465 17.9507 -2.473e-16)
(25.8825 18.1381 0)
(27.1472 18.1949 -4.3427e-16)
(28.4256 18.1123 -4.66451e-16)
(29.7064 17.8846 4.63359e-16)
(30.9705 17.5077 1.73555e-15)
(32.1997 16.9792 6.9774e-16)
(33.3748 16.3008 -2.1181e-15)
(34.474 15.4779 -1.53249e-15)
(35.4767 14.5204 1.21275e-15)
(36.3642 13.4417 8.96926e-16)
(37.1183 12.2637 -4.40596e-16)
(37.7258 11.0099 4.41379e-16)
(38.1806 9.70194 1.11904e-15)
(38.4808 8.35762 2.08392e-16)
(38.6224 6.98874 -1.99585e-16)
(38.5908 5.60845 -1.33943e-15)
(38.3629 4.24937 0)
(37.9325 2.96723 -7.24478e-16)
(37.3358 1.8142 -3.48759e-16)
(36.6344 0.803913 -3.21976e-16)
(35.8721 -0.0855366 -1.19202e-15)
(35.0587 -0.87455 4.47052e-15)
(34.1908 -1.56725 1.84332e-15)
(33.2671 -2.16266 5.8819e-18)
(32.2842 -2.66032 4.11513e-17)
(31.2346 -3.05642 0)
(30.0871 -3.34108 -3.94585e-15)
(28.8609 -3.48977 0)
(27.479 -3.48141 0)
(26.8405 -3.13445 4.38935e-16)
(24.7092 -2.992 4.3889e-18)
(17.3011 13.3878 -5.38855e-17)
(16.7584 12.6502 1.82855e-16)
(16.2305 11.7706 1.22634e-17)
(15.7277 10.7712 2.58854e-16)
(15.3212 9.70481 -9.34753e-16)
(15.0135 8.56531 6.88087e-16)
(14.8273 7.37396 3.5361e-17)
(14.7743 6.19795 -6.76295e-16)
(14.8523 5.08417 -6.63334e-16)
(15.0508 4.04295 -7.07255e-16)
(15.3512 3.09107 -1.40444e-15)
(15.7346 2.24189 0)
(16.1881 1.49155 -7.2216e-16)
(16.6991 0.835509 -2.55805e-17)
(17.2558 0.272286 0)
(17.8494 -0.203127 -6.09059e-16)
(18.4714 -0.593971 -2.90542e-16)
(19.1133 -0.903553 -2.73751e-16)
(19.7686 -1.13497 9.45283e-16)
(20.4311 -1.29079 8.44887e-16)
(21.0954 -1.37204 -8.76433e-17)
(21.7556 -1.37851 6.553e-16)
(22.4044 -1.30839 1.29529e-16)
(23.0296 -1.16067 -6.26133e-17)
(23.6131 -0.938588 3.46201e-16)
(24.1363 -0.653459 2.11907e-17)
(24.5889 -0.321105 0)
(24.9684 0.0451309 0)
(25.2737 0.434413 -1.74414e-18)
(25.5041 0.835715 4.24233e-18)
(25.6601 1.23805 -1.33378e-16)
(25.7441 1.63213 -2.10696e-17)
(25.758 2.01012 1.88167e-16)
(25.7034 2.36483 1.63296e-16)
(25.5744 2.69147 9.16488e-18)
(25.3701 2.98013 4.36184e-18)
(25.0304 3.22632 3.99213e-15)
(24.6075 3.32285 -2.90223e-15)
(23.7158 3.2676 2.40659e-17)
(18.6019 13.4343 6.12946e-18)
(19.2327 14.0588 0)
(19.986 14.6961 -3.57262e-17)
(20.8283 15.3041 0)
(21.7225 15.8362 -7.2514e-17)
(22.7075 16.3086 7.01861e-17)
(23.7557 16.6983 1.53688e-16)
(24.8464 16.9873 2.3262e-16)
(25.9812 17.1704 0)
(27.1429 17.238 -2.86698e-16)
(28.3194 17.1821 4.76798e-16)
(29.5024 16.9968 -9.79655e-16)
(30.6758 16.677 -5.49041e-16)
(31.8241 16.2193 -5.59828e-16)
(32.9305 15.6231 1.3464e-15)
(33.9754 14.891 1.46042e-15)
(34.939 14.0298 -1.5705e-15)
(35.8025 13.0509 -1.57145e-15)
(36.5489 11.9683 0)
(37.1638 10.8001 4.05436e-16)
(37.6374 9.56606 -7.84822e-16)
(37.9637 8.28548 1.91808e-16)
(38.1358 6.975 2.59224e-18)
(38.1405 5.65229 3.15909e-15)
(37.9592 4.34715 -1.75029e-16)
(37.5862 3.10557 1.09617e-16)
(37.0492 1.97382 3.21118e-16)
(36.4001 0.969803 3.40376e-16)
(35.6794 0.0798974 1.02199e-15)
(34.9008 -0.711974 -2.04971e-15)
(34.0645 -1.40916 -1.6831e-15)
(33.1726 -2.01018 -6.60006e-15)
(32.2257 -2.5141 5.67239e-15)
(31.2218 -2.91692 -8.03277e-17)
(30.1334 -3.2087 3.65861e-15)
(28.9713 -3.36175 -1.11728e-16)
(27.5273 -3.35904 6.11211e-17)
(26.5196 -2.96221 4.1521e-18)
(24.8894 -2.82139 -1.90497e-15)
(18.0462 12.7907 2.65104e-17)
(17.5363 12.1169 -9.39894e-17)
(17.0354 11.3121 1.85019e-16)
(16.5537 10.3962 0)
(16.1583 9.42021 5.43492e-16)
(15.8494 8.37456 0)
(15.6486 7.27824 0)
(15.5686 6.19516 0)
(15.6067 5.16809 1.22616e-15)
(15.7536 4.20468 -6.05743e-16)
(15.9933 3.31975 6.84983e-16)
(16.3093 2.52534 0)
(16.6909 1.81681 0)
(17.1283 1.18952 -6.2015e-16)
(17.6121 0.642594 0)
(18.1359 0.172179 5.64303e-16)
(18.6929 -0.22363 1.29667e-17)
(19.2762 -0.546059 0)
(19.8797 -0.796139 -6.71875e-16)
(20.4972 -0.974727 -9.95661e-16)
(21.1227 -1.08157 -6.93399e-16)
(21.7497 -1.1157 -6.03309e-16)
(22.3703 -1.07506 1.0338e-15)
(22.9728 -0.958797 0)
(23.5395 -0.769752 3.46565e-16)
(24.0526 -0.517076 3.20164e-16)
(24.5011 -0.214631 1.19442e-16)
(24.8805 0.124797 0)
(25.189 0.490323 -8.82464e-18)
(25.4249 0.870955 -5.25925e-17)
(25.5881 1.25567 1.45913e-16)
(25.6801 1.63465 -2.01632e-17)
(25.7024 2.00007 -1.70103e-16)
(25.6561 2.34447 2.03558e-16)
(25.5354 2.66244 -2.39746e-18)
(25.339 2.94291 9.16487e-18)
(25.0121 3.17916 -3.87083e-15)
(24.6035 3.26444 2.68734e-15)
(23.7858 3.19128 6.78682e-15)
(19.2324 12.8367 2.85281e-18)
(19.8238 13.4103 -1.79589e-17)
(20.5292 13.9963 0)
(21.3156 14.555 -1.51417e-17)
(22.1462 15.0434 0)
(23.0596 15.4781 0)
(24.0292 15.8384 1.95705e-17)
(25.0357 16.1079 2.01881e-16)
(26.0821 16.2829 4.68092e-16)
(27.1529 16.3548 1.19977e-15)
(28.2385 16.3166 6.8073e-16)
(29.333 16.1626 7.8774e-16)
(30.4228 15.8874 0)
(31.4954 15.4863 1.54092e-15)
(32.5359 14.9572 -5.46856e-16)
(33.5269 14.3004 0)
(34.4502 13.52 1.30847e-15)
(35.2875 12.6238 1.49895e-15)
(36.0219 11.6238 0)
(36.637 10.5365 1.43737e-15)
(37.1208 9.37994 -1.40747e-15)
(37.4648 8.17207 0)
(37.6607 6.92986 -1.69318e-16)
(37.6965 5.67208 2.88518e-17)
(37.5574 4.42575 8.1967e-17)
(37.2375 3.22933 1.24554e-15)
(36.7575 2.12402 -4.52748e-18)
(36.1599 1.131 -3.33142e-17)
(35.4814 0.244174 -2.78652e-17)
(34.7374 -0.548145 6.18767e-17)
(33.9305 -1.24803 1.68245e-15)
(33.0642 -1.85316 5.92446e-15)
(32.1411 -2.36182 4.80279e-17)
(31.1634 -2.7694 -4.2733e-15)
(30.1113 -3.06671 -3.29692e-15)
(29.0094 -3.22286 -4.78064e-15)
(27.6673 -3.23545 -2.70202e-15)
(26.4491 -2.82401 1.9787e-17)
(24.9071 -2.62517 1.81083e-15)
(18.709 12.2456 -6.03416e-17)
(18.2281 11.6277 -2.24724e-16)
(17.7516 10.8883 4.45274e-16)
(17.2898 10.0456 0)
(16.9057 9.14845 8.74118e-16)
(16.5984 8.18497 0)
(16.3881 7.17248 -4.79475e-16)
(16.2878 6.17177 1.92379e-15)
(16.2951 5.22194 -1.48817e-15)
(16.4012 4.32907 0)
(16.592 3.50614 1.10504e-15)
(16.8527 2.76402 1.06956e-15)
(17.1743 2.09748 0)
(17.5488 1.50174 -1.05676e-15)
(17.9687 0.97588 2.55903e-16)
(18.4294 0.516311 -2.56285e-16)
(18.9262 0.122051 2.49709e-16)
(19.4534 -0.206843 4.38866e-16)
(20.0058 -0.469913 -1.63118e-17)
(20.5778 -0.666494 5.3222e-16)
(21.1633 -0.795092 1.57511e-16)
(21.7555 -0.853882 -1.51198e-16)
(22.3466 -0.840474 -4.87702e-16)
(22.9248 -0.753741 4.19837e-16)
(23.4733 -0.59586 -3.05278e-16)
(23.9745 -0.374266 -3.22067e-16)
(24.417 -0.100866 -1.12556e-16)
(24.7951 0.212352 -1.25444e-18)
(25.1055 0.554635 9.60334e-18)
(25.346 0.915205 4.97239e-17)
(25.5156 1.28308 1.05027e-17)
(25.6151 1.64824 -1.93417e-17)
(25.6455 2.00233 2.35407e-16)
(25.6074 2.33703 -2.059e-16)
(25.4951 2.64594 9.57837e-18)
(25.3071 2.91656 -7.19911e-16)
(24.9937 3.14018 1.8615e-15)
(24.6008 3.21113 0)
(23.854 3.11932 -6.4354e-15)
(19.7963 12.2896 1.00501e-17)
(20.3529 12.8178 0)
(21.0158 13.3579 0)
(21.7528 13.8722 6.91582e-18)
(22.5277 14.321 -2.03606e-17)
(23.378 14.7209 0)
(24.2786 15.0532 0)
(25.2108 15.3032 -6.58942e-16)
(26.1788 15.4683 -3.3505e-17)
(27.1687 15.541 -4.08273e-17)
(28.1724 15.5151 -1.57222e-15)
(29.186 15.3854 -4.12398e-16)
(30.1981 15.1465 7.87295e-16)
(31.1984 14.7936 -6.72066e-17)
(32.1746 14.3231 0)
(33.111 13.734 0)
(33.9912 13.0281 -3.57922e-15)
(34.7977 12.2109 -6.61796e-16)
(35.5141 11.2913 6.71159e-16)
(36.124 10.2821 -1.39277e-15)
(36.6134 9.19915 2.65095e-15)
(36.9717 8.0598 1.2601e-15)
(37.1891 6.88189 -1.22653e-15)
(37.2542 5.6855 -1.39847e-15)
(37.1545 4.4956 2.23179e-16)
(36.8843 3.34421 -1.21867e-15)
(36.4587 2.26751 -1.38336e-16)
(35.912 1.28853 3.07683e-17)
(35.2769 0.40733 -3.09516e-17)
(34.5692 -0.383457 1.03475e-16)
(33.7936 -1.08456 -4.31654e-17)
(32.9542 -1.69275 -2.90263e-15)
(32.0539 -2.20525 -1.08331e-16)
(31.0962 -2.6166 1.27228e-16)
(30.0658 -2.91797 0)
(28.9894 -3.07595 4.40949e-15)
(27.746 -3.09611 2.51142e-15)
(26.5163 -2.69893 0)
(24.961 -2.43397 0)
(19.3019 11.7451 0)
(18.8468 11.1766 2.00559e-16)
(18.3929 10.495 -6.6441e-16)
(17.9498 9.71709 -3.22217e-16)
(17.5771 8.88938 -7.89524e-16)
(17.2733 7.99842 0)
(17.0572 7.06054 0)
(16.9419 6.1333 -8.56902e-16)
(16.9253 5.25275 8.95892e-16)
(16.9989 4.42373 0)
(17.15 3.65783 -4.66002e-16)
(17.3653 2.96511 -5.02919e-16)
(17.6368 2.33992 4.76218e-16)
(17.9576 1.77693 4.9413e-16)
(18.3218 1.27495 -9.18074e-16)
(18.7263 0.830554 0)
(19.1677 0.443011 -2.077e-16)
(19.6418 0.113089 1.29701e-17)
(20.1447 -0.157838 9.22536e-16)
(20.6715 -0.367949 -1.70907e-16)
(21.2165 -0.514627 1.64177e-16)
(21.7729 -0.595256 -1.25456e-16)
(22.3333 -0.606931 1.7805e-16)
(22.886 -0.548085 -8.47999e-16)
(23.4146 -0.420055 -3.01486e-16)
(23.9023 -0.228685 2.61103e-16)
(24.3371 0.0158542 -1.60304e-17)
(24.7122 0.302532 0)
(25.0234 0.620899 -9.21866e-18)
(25.2676 0.960396 5.44524e-17)
(25.443 1.31016 -7.71418e-17)
(25.5497 1.65996 1.28608e-16)
(25.588 2.00113 -4.80865e-16)
(25.5581 2.3249 5.10086e-16)