/*--------------------------------*- C++ -*----------------------------------*\
| =========                 |                                                 |
| \\      /  F ield         | OpenFOAM: The Open Source CFD Toolbox           |
|  \\    /   O peration     | Version:  2312                                  |
|   \\  /    A nd           | Website:  www.openfoam.com                      |
|    \\/     M anipulation  |                                                 |
\*---------------------------------------------------------------------------*/
FoamFile
{
    version     2.0;
    format      ascii;
    arch        "LSB;label=32;scalar=64";
    class       volScalarField;
    location    "50";
    object      div(phi);
}
// * * * * * * * * * * * * * * * * * * * * * * * * * * * * * * * * * * * * * //

dimensions      [0 0 -1 0 0 0 0];

internalField   nonuniform List<scalar> 
27
(
-2.81492
14.4213
-5.54156
-13.9913
26.0835
5.219
26.5368
21.2055
32.0305
32.1151
-44.4638
-18.5352
-66.9829
-34.4031
-51.1532
-40.1116
-18.3729
-28.0987
9.64873
27.4752
-5.6305
52.2043
78.4198
30.6357
22.6611
7.6348
2.05626
)
;

boundaryField
{
    aggregate
    {
        type            extrapolatedCalculated;
        value           nonuniform List<scalar> 
24
(
-2.81492
-2.81492
-2.81492
14.4213
14.4213
14.4213
-13.9913
-13.9913
-13.9913
26.0835
26.0835
26.0835
32.1151
32.1151
32.1151
-44.4638
-44.4638
-44.4638
-66.9829
-66.9829
-66.9829
-34.4031
-34.4031
-34.4031
)
;
    }
    XY-Zmin
    {
        type            extrapolatedCalculated;
        value           nonuniform List<scalar> 9(-2.81492 -13.9913 26.5368 32.1151 -66.9829 -40.1116 9.64873 52.2043 22.6611);
    }
    YZ-Xmin
    {
        type            extrapolatedCalculated;
        value           nonuniform List<scalar> 9(-2.81492 14.4213 -5.54156 -13.9913 26.0835 5.219 26.5368 21.2055 32.0305);
    }
    XZ-Ymin
    {
        type            extrapolatedCalculated;
        value           nonuniform List<scalar> 9(-2.81492 14.4213 -5.54156 32.1151 -44.4638 -18.5352 9.64873 27.4752 -5.6305);
    }
    XY-Zmax
    {
        type            extrapolatedCalculated;
        value           nonuniform List<scalar> 9(-5.54156 5.219 32.0305 -18.5352 -51.1532 -28.0987 -5.6305 30.6357 2.05626);
    }
    XZ-Ymax
    {
        type            extrapolatedCalculated;
        value           nonuniform List<scalar> 9(26.5368 21.2055 32.0305 -40.1116 -18.3729 -28.0987 22.6611 7.6348 2.05626);
    }
    YZ-Xmax
    {
        type            extrapolatedCalculated;
        value           nonuniform List<scalar> 9(9.64873 27.4752 -5.6305 52.2043 78.4198 30.6357 22.6611 7.6348 2.05626);
    }
}


// ************************************************************************* //
