/*--------------------------------*- C++ -*----------------------------------*\
| =========                 |                                                 |
| \\      /  F ield         | OpenFOAM: The Open Source CFD Toolbox           |
|  \\    /   O peration     | Version:  2312                                  |
|   \\  /    A nd           | Website:  www.openfoam.com                      |
|    \\/     M anipulation  |                                                 |
\*---------------------------------------------------------------------------*/
FoamFile
{
    version     2.0;
    format      ascii;
    arch        "LSB;label=32;scalar=64";
    class       volScalarField;
    location    "50";
    object      magR;
}
// * * * * * * * * * * * * * * * * * * * * * * * * * * * * * * * * * * * * * //

dimensions      [0 2 -2 0 0 0 0];

internalField   nonuniform List<scalar> 
27
(
0.0538163
0.0361666
0.0409203
0.0395107
0.0151756
0.0282474
0.0421654
0.0244524
0.0445141
0.00395751
0.00187377
2.10932e-05
0.00355851
0.0022877
0.00604317
0.00965902
2.68949e-05
0.0157631
0.0351805
0.0711905
0.13613
0.127632
0.0459963
0.194238
0.309556
0.248524
0.474525
)
;

boundaryField
{
    aggregate
    {
        type            calculated;
        value           nonuniform List<scalar> 
24
(
2.30033
2.38007
2.19264
2.16115
2.28897
2.11987
2.29326
2.4968
2.29268
2.17961
2.32962
2.11572
1.38368
1.40503
1.31921
1.55699
1.66256
1.56136
1.81796
1.97103
1.79619
1.88649
2.02064
1.81938
)
;
    }
    XY-Zmin
    {
        type            calculated;
        value           nonuniform List<scalar> 9(2.09909 2.04398 1.76989 1.24746 1.63766 2.13272 1.02459 0.983628 1.6403);
    }
    YZ-Xmin
    {
        type            calculated;
        value           nonuniform List<scalar> 9(0.0333083 0.0251817 0.0297712 0.0268235 0.0162759 0.022729 0.034802 0.0254177 0.0339567);
    }
    XZ-Ymin
    {
        type            calculated;
        value           nonuniform List<scalar> 9(2.08361 1.86585 1.51683 1.23468 1.3597 1.42025 1.00289 0.720389 0.80048);
    }
    XY-Zmax
    {
        type            calculated;
        value           nonuniform List<scalar> 9(1.49229 1.47513 1.70678 1.45136 1.72089 1.93848 0.841388 1.34757 2.2594);
    }
    XZ-Ymax
    {
        type            calculated;
        value           nonuniform List<scalar> 9(1.75942 1.58986 1.73335 2.17961 1.88787 1.96721 1.72183 2.00963 2.31757);
    }
    YZ-Xmax
    {
        type            calculated;
        value           nonuniform List<scalar> 9(0.0368435 0.0723409 0.135753 0.125404 0.0479368 0.191581 0.299387 0.234117 0.469051);
    }
}


// ************************************************************************* //
