/*--------------------------------*- C++ -*----------------------------------*\
| =========                 |                                                 |
| \\      /  F ield         | OpenFOAM: The Open Source CFD Toolbox           |
|  \\    /   O peration     | Version:  2312                                  |
|   \\  /    A nd           | Website:  www.openfoam.com                      |
|    \\/     M anipulation  |                                                 |
\*---------------------------------------------------------------------------*/
FoamFile
{
    version     2.0;
    format      ascii;
    arch        "LSB;label=32;scalar=64";
    class       volVectorField;
    location    "50";
    object      momentError;
}
// * * * * * * * * * * * * * * * * * * * * * * * * * * * * * * * * * * * * * //

dimensions      [0 1 -2 0 0 0 0];

internalField   nonuniform List<vector> 
27
(
(0.0183596 -0.00299906 -0.00599412)
(0.0302355 0.00221768 0.00270828)
(0.0151324 0.0099328 0.00324638)
(0.176508 0.0157744 -0.19649)
(-0.00459253 0.0182952 -0.000312175)
(1.5438 0.0793153 -1.66206)
(-1.19417 -0.812278 2.35857)
(2.4378 0.024271 -2.4867)
(2.23759 0.265109 -0.449458)
(-0.0365604 0.0324329 0.0511039)
(-61.6074 -7.43177 -3.60676)
(0.0615891 -0.00107347 -0.0410678)
(-89.5949 -19.9385 21.7906)
(-95.1446 -3.17505 -29.4027)
(-38.5954 -1.71026 -17.6484)
(-56.9417 -7.85175 23.1921)
(-156.924 -24.2788 -27.8122)
(-53.6128 -23.8017 -23.401)
(-453.368 -128.163 -39.3968)
(-1165.03 -84.2259 -97.2863)
(-898.646 -70.2817 -100.864)
(-1664.65 -193.141 84.7565)
(-1512.46 -345.804 -131.114)
(-918.522 -374.998 -233.498)
(-1060.84 -650.092 -58.0975)
(-50.3224 -809.999 -45.1943)
(547.469 -545.464 38.0602)
)
;

boundaryField
{
    aggregate
    {
        type            calculated;
        value           nonuniform List<vector> 
24
(
(-87.1001 -70.5951 102.533)
(625.547 -11.0447 -0.611135)
(-87.1001 17.699 15.984)
(437.273 -271.65 578.943)
(1158.77 50.4807 21.0003)
(437.273 135.687 70.1954)
(-444.585 -98.001 84.6439)
(436.061 -50.1102 1.69481)
(-444.585 -345.371 -168.77)
(798.987 -186.421 501.051)
(1676.3 87.061 27.3635)
(798.987 -61.8491 -58.6107)
(746.692 92.611 66.9491)
(1220.43 114.978 28.2085)
(746.692 267.035 115.998)
(-1198.98 -5.53132 -256.267)
(-1084.69 -123.066 -52.6926)
(-1198.98 -327.394 -170.664)
(-1972.63 -229.287 192.966)
(-1905.9 -143.441 44.2754)
(-1972.63 -556.116 -193.977)
(-1076.72 -28.0028 -73.7643)
(-935.015 -46.7226 -41.3403)
(-1076.72 -626.145 -375.873)
)
;
    }
    XY-Zmin
    {
        type            calculated;
        value           nonuniform List<vector> 9((-87.1001 -11.0447 119.128) (-444.585 -50.1102 -85.8236) (727.059 84.57 11.4316) (746.692 114.978 154.739) (-1972.63 -143.441 -45.2905) (-1296.47 -79.8786 45.8092) (-250.064 -118.896 -217.153) (-539.777 -279.714 38.4352) (-449.594 -686.996 30.5467));
    }
    YZ-Xmin
    {
        type            calculated;
        value           nonuniform List<vector> 9((708.468 -0.850583 -0.608192) (794.366 -1.71612 20.8983) (-6.50915 4.47791 -7.43978) (807.886 0.535863 1.68562) (1017.4 -7.32558 27.2306) (360.937 -9.38026 4.53918) (800.999 -11.4414 2.22313) (817.571 -4.81589 1.197) (864.528 -38.9975 3.78367));
    }
    XZ-Ymin
    {
        type            calculated;
        value           nonuniform List<vector> 9((-87.1001 -41.8512 -0.611135) (437.273 -186.446 21.0003) (-141.94 -321.704 -7.47612) (746.692 244.668 28.2085) (-1198.98 -209.859 -52.6926) (-456.827 -1.83749 -8.70712) (-250.064 -481.981 -41.0369) (-658.324 -296.216 -118.986) (-1001.08 -243.741 -97.7634));
    }
    XY-Zmax
    {
        type            calculated;
        value           nonuniform List<vector> 9((-141.94 -15.5607 453.326) (143.441 9.46647 449.164) (876.219 76.7614 67.8418) (-456.827 -51.908 -434.509) (-1531.44 -74.9734 -331.649) (-879.076 -76.3899 68.8244) (-1001.08 -77.0243 -112.074) (-138.221 -394.552 -187.71) (614.064 -545.475 98.0903));
    }
    XZ-Ymax
    {
        type            calculated;
        value           nonuniform List<vector> 9((727.059 -208.432 2.22247) (588.31 -101.665 1.215) (876.219 -455.976 3.8043) (-1296.47 -667.461 18.4996) (-711.644 -518.325 -36.3447) (-879.076 -152.889 -33.6895) (-449.594 -645.505 -52.0778) (190.272 -652.303 -37.7644) (614.064 -369.071 39.8604));
    }
    YZ-Xmax
    {
        type            calculated;
        value           nonuniform List<vector> 9((-443.866 -128.174 -39.3975) (-1852.05 -84.4243 -97.3371) (-1198.84 -70.2378 -100.854) (-2919.77 -194.808 84.7165) (-2773.83 -348.651 -131.378) (-1767.27 -375.631 -233.497) (-1596.26 -650.812 -58.061) (-366.791 -810.119 -45.1679) (302.397 -545.476 38.0632));
    }
}


// ************************************************************************* //
