/*--------------------------------*- C++ -*----------------------------------*\
| =========                 |                                                 |
| \\      /  F ield         | OpenFOAM: The Open Source CFD Toolbox           |
|  \\    /   O peration     | Version:  2312                                  |
|   \\  /    A nd           | Website:  www.openfoam.com                      |
|    \\/     M anipulation  |                                                 |
\*---------------------------------------------------------------------------*/
FoamFile
{
    version     2.0;
    format      ascii;
    arch        "LSB;label=32;scalar=64";
    class       volScalarField;
    location    "50";
    object      nut;
}
// * * * * * * * * * * * * * * * * * * * * * * * * * * * * * * * * * * * * * //

dimensions      [0 2 -1 0 0 0 0];

internalField   nonuniform List<scalar> 
27
(
1.74022e-05
1.56502e-05
1.02024e-05
1.7726e-05
1.30721e-05
8.66362e-06
8.7512e-06
5.70622e-06
1.06161e-05
1.78116e-07
6.36234e-08
3.01344e-12
1.82464e-07
2.35083e-07
3.94764e-07
4.46529e-07
6.8615e-12
1.27282e-06
1.34577e-05
6.95747e-05
0.000104752
0.000126411
0.000157992
0.000178959
0.000186662
0.000203969
0.000262415
)
;

boundaryField
{
    aggregate
    {
        type            nutUSpaldingWallFunction;
        value           nonuniform List<scalar> 
24
(
0.00151988
0.000159039
0.00114858
0.00112895
0.000156174
0.00149397
0.00117274
0.000162563
0.00155175
0.00150509
0.000157405
0.0011374
0.00120444
0.000124186
0.0009097
0.000979281
0.000134337
0.00129633
0.00105554
0.000145463
0.00139699
0.00141286
0.000147214
0.00106755
)
;
    }
    XY-Zmin
    {
        type            nutUSpaldingWallFunction;
        value           nonuniform List<scalar> 9(0.00205353 0.00207761 0.00196503 0.00162356 0.00186849 0.0021607 0.00156883 0.00160088 0.00192889);
    }
    YZ-Xmin
    {
        type            freestream;
        freestreamValue uniform 1e-05;
        value           uniform 1e-05;
    }
    XZ-Ymin
    {
        type            nutUSpaldingWallFunction;
        value           nonuniform List<scalar> 9(0.00203449 0.00201816 0.00185602 0.00160856 0.0017487 0.00179625 0.00156883 0.00140452 0.00139016);
    }
    XY-Zmax
    {
        type            nutUSpaldingWallFunction;
        value           nonuniform List<scalar> 9(0.00185602 0.00194381 0.00195073 0.00179625 0.00206004 0.00207191 0.00139016 0.00183636 0.00224474);
    }
    XZ-Ymax
    {
        type            nutUSpaldingWallFunction;
        value           nonuniform List<scalar> 9(0.00196503 0.0019772 0.00195073 0.0021607 0.00212234 0.00207191 0.00192889 0.00219474 0.00224474);
    }
    YZ-Xmax
    {
        type            freestream;
        freestreamValue uniform 1e-05;
        value           nonuniform List<scalar> 9(1.34577e-05 6.95747e-05 0.000104752 0.000126411 0.000157992 0.000178959 0.000186662 0.000203969 0.000262415);
    }
}


// ************************************************************************* //
