/*--------------------------------*- C++ -*----------------------------------*\
| =========                 |                                                 |
| \\      /  F ield         | OpenFOAM: The Open Source CFD Toolbox           |
|  \\    /   O peration     | Version:  2312                                  |
|   \\  /    A nd           | Website:  www.openfoam.com                      |
|    \\/     M anipulation  |                                                 |
\*---------------------------------------------------------------------------*/
FoamFile
{
    version     2.0;
    format      ascii;
    arch        "LSB;label=32;scalar=64";
    class       volScalarField;
    location    "50";
    object      nuTilda;
}
// * * * * * * * * * * * * * * * * * * * * * * * * * * * * * * * * * * * * * //

dimensions      [0 2 -1 0 0 0 0];

internalField   nonuniform List<scalar> 
27
(
5.4947e-05
5.30879e-05
4.6506e-05
5.52807e-05
5.0155e-05
4.43089e-05
4.44397e-05
3.93149e-05
4.70641e-05
1.59346e-05
1.23002e-05
1.01908e-06
1.60317e-05
1.70904e-05
1.94872e-05
2.01069e-05
1.25184e-06
2.63039e-05
5.06114e-05
9.69235e-05
0.000124282
0.000142159
0.000169586
0.000188519
0.000195591
0.000211667
0.000267331
)
;

boundaryField
{
    aggregate
    {
        type            fixedValue;
        value           uniform 0;
    }
    XY-Zmin
    {
        type            fixedValue;
        value           uniform 0;
    }
    YZ-Xmin
    {
        type            freestream;
        freestreamValue uniform 4e-05;
        value           uniform 4e-05;
    }
    XZ-Ymin
    {
        type            fixedValue;
        value           uniform 0;
    }
    XY-Zmax
    {
        type            fixedValue;
        value           uniform 0;
    }
    XZ-Ymax
    {
        type            fixedValue;
        value           uniform 0;
    }
    YZ-Xmax
    {
        type            freestream;
        freestreamValue uniform 4e-05;
        value           nonuniform List<scalar> 9(5.06114e-05 9.69235e-05 0.000124282 0.000142159 0.000169586 0.000188519 0.000195591 0.000211667 0.000267331);
    }
}


// ************************************************************************* //
