/*--------------------------------*- C++ -*----------------------------------*\
| =========                 |                                                 |
| \\      /  F ield         | OpenFOAM: The Open Source CFD Toolbox           |
|  \\    /   O peration     | Version:  2312                                  |
|   \\  /    A nd           | Website:  www.openfoam.com                      |
|    \\/     M anipulation  |                                                 |
\*---------------------------------------------------------------------------*/
FoamFile
{
    version     2.0;
    format      ascii;
    arch        "LSB;label=32;scalar=64";
    class       surfaceScalarField;
    location    "50";
    object      phi;
}
// * * * * * * * * * * * * * * * * * * * * * * * * * * * * * * * * * * * * * //

dimensions      [0 3 -1 0 0 0 0];

oriented        oriented;

internalField   nonuniform List<scalar> 
54
(
0.00453501
0.0232256
0.0284175
-0.00213677
0.0208319
0.0207954
0.0218817
0.0273427
0.000298509
0.0319985
0.00301442
0.0114912
0.222093
0.013986
0.23065
-0.00440417
0.253341
0.248525
0.0271726
0.000545758
0.246172
0.0157299
0.00197257
0.293892
0.0232441
0.310772
0.00447257
0.00239465
0.307689
0.00999604
0.00607621
0.303741
0.0143239
0.209035
-0.010071
0.194404
-0.00430169
0.207158
0.21207
-0.0151504
-0.0050234
0.220377
-0.0154796
-0.000477428
0.253632
-0.00467714
0.272738
-0.00964806
0.00753444
0.29563
-0.00443022
0.00961523
0.296042
0.00350748
)
;

boundaryField
{
    aggregate
    {
        type            calculated;
        value           uniform 0;
    }
    XY-Zmin
    {
        type            calculated;
        value           uniform 0;
    }
    YZ-Xmin
    {
        type            calculated;
        value           nonuniform List<scalar> 9(-0.257509 -0.257553 -0.257539 -0.257556 -0.257448 -0.257487 -0.257191 -0.257201 -0.257205);
    }
    XZ-Ymin
    {
        type            calculated;
        value           uniform 0;
    }
    XY-Zmax
    {
        type            calculated;
        value           uniform 0;
    }
    XZ-Ymax
    {
        type            calculated;
        value           uniform 0;
    }
    YZ-Xmax
    {
        type            calculated;
        value           nonuniform List<scalar> 9(0.243905 0.231589 0.201903 0.263795 0.283201 0.275605 0.278217 0.296754 0.311221);
    }
}


// ************************************************************************* //
