/*--------------------------------*- C++ -*----------------------------------*\
| =========                 |                                                 |
| \\      /  F ield         | OpenFOAM: The Open Source CFD Toolbox           |
|  \\    /   O peration     | Version:  2312                                  |
|   \\  /    A nd           | Website:  www.openfoam.com                      |
|    \\/     M anipulation  |                                                 |
\*---------------------------------------------------------------------------*/
FoamFile
{
    version     2.0;
    format      ascii;
    arch        "LSB;label=32;scalar=64";
    class       volScalarField;
    location    "50";
    object      turbulenceProperties:nuEff;
}
// * * * * * * * * * * * * * * * * * * * * * * * * * * * * * * * * * * * * * //

dimensions      [0 2 -1 0 0 0 0];

internalField   nonuniform List<scalar> 
27
(
2.74022e-05
2.56502e-05
2.02024e-05
2.7726e-05
2.30721e-05
1.86636e-05
1.87512e-05
1.57062e-05
2.06161e-05
1.01781e-05
1.00636e-05
1e-05
1.01825e-05
1.02351e-05
1.03948e-05
1.04465e-05
1e-05
1.12728e-05
2.34577e-05
7.95747e-05
0.000114752
0.000136411
0.000167992
0.000188959
0.000196662
0.000213969
0.000272415
)
;

boundaryField
{
    aggregate
    {
        type            calculated;
        value           nonuniform List<scalar> 
24
(
0.00152988
0.000169039
0.00115858
0.00113895
0.000166174
0.00150397
0.00118274
0.000172563
0.00156175
0.00151509
0.000167405
0.0011474
0.00121444
0.000134186
0.0009197
0.000989281
0.000144337
0.00130633
0.00106554
0.000155463
0.00140699
0.00142286
0.000157214
0.00107755
)
;
    }
    XY-Zmin
    {
        type            calculated;
        value           nonuniform List<scalar> 9(0.00206353 0.00208761 0.00197503 0.00163356 0.00187849 0.0021707 0.00157883 0.00161088 0.00193889);
    }
    YZ-Xmin
    {
        type            calculated;
        value           uniform 2e-05;
    }
    XZ-Ymin
    {
        type            calculated;
        value           nonuniform List<scalar> 9(0.00204449 0.00202816 0.00186602 0.00161856 0.0017587 0.00180625 0.00157883 0.00141452 0.00140016);
    }
    XY-Zmax
    {
        type            calculated;
        value           nonuniform List<scalar> 9(0.00186602 0.00195381 0.00196073 0.00180625 0.00207004 0.00208191 0.00140016 0.00184636 0.00225474);
    }
    XZ-Ymax
    {
        type            calculated;
        value           nonuniform List<scalar> 9(0.00197503 0.0019872 0.00196073 0.0021707 0.00213234 0.00208191 0.00193889 0.00220474 0.00225474);
    }
    YZ-Xmax
    {
        type            calculated;
        value           nonuniform List<scalar> 9(2.34577e-05 7.95747e-05 0.000114752 0.000136411 0.000167992 0.000188959 0.000196662 0.000213969 0.000272415);
    }
}


// ************************************************************************* //
