/*--------------------------------*- C++ -*----------------------------------*\
| =========                 |                                                 |
| \\      /  F ield         | OpenFOAM: The Open Source CFD Toolbox           |
|  \\    /   O peration     | Version:  2312                                  |
|   \\  /    A nd           | Website:  www.openfoam.com                      |
|    \\/     M anipulation  |                                                 |
\*---------------------------------------------------------------------------*/
FoamFile
{
    version     2.0;
    format      ascii;
    arch        "LSB;label=32;scalar=64";
    class       volScalarField;
    location    "50";
    object      turbulenceProperties:epsilon;
}
// * * * * * * * * * * * * * * * * * * * * * * * * * * * * * * * * * * * * * //

dimensions      [0 2 -3 0 0 0 0];

internalField   nonuniform List<scalar> 
27
(
1.47771
0.679463
0.917153
0.793936
0.122814
0.442809
0.985967
0.338047
1.08127
0.00693456
0.00137843
5.06762e-08
0.00562203
0.00239043
0.0176338
0.0456219
9.13122e-08
0.133469
0.657269
1.60583
4.52922
3.47242
0.381894
6.00013
14.6698
8.72906
25.1192
)
;

boundaryField
{
    aggregate
    {
        type            calculated;
        value           uniform 0;
    }
    XY-Zmin
    {
        type            calculated;
        value           uniform 0;
    }
    YZ-Xmin
    {
        type            calculated;
        value           nonuniform List<scalar> 9(0.568027 0.325042 0.452598 0.368764 0.136318 0.263818 0.618479 0.329907 0.588806);
    }
    XZ-Ymin
    {
        type            calculated;
        value           uniform 0;
    }
    XY-Zmax
    {
        type            calculated;
        value           uniform 0;
    }
    XZ-Ymax
    {
        type            calculated;
        value           uniform 0;
    }
    YZ-Xmax
    {
        type            calculated;
        value           nonuniform List<scalar> 9(0.72083 1.65411 4.50271 3.34247 0.407224 5.83395 13.7253 7.74482 24.5426);
    }
}


// ************************************************************************* //
