/*--------------------------------*- C++ -*----------------------------------*\
| =========                 |                                                 |
| \\      /  F ield         | OpenFOAM: The Open Source CFD Toolbox           |
|  \\    /   O peration     | Version:  2312                                  |
|   \\  /    A nd           | Website:  www.openfoam.com                      |
|    \\/     M anipulation  |                                                 |
\*---------------------------------------------------------------------------*/
FoamFile
{
    version     2.0;
    format      ascii;
    arch        "LSB;label=32;scalar=64";
    class       volScalarField;
    location    "50";
    object      turbulenceProperties:k;
}
// * * * * * * * * * * * * * * * * * * * * * * * * * * * * * * * * * * * * * //

dimensions      [0 2 -2 0 0 0 0];

internalField   nonuniform List<scalar> 
27
(
0.0459437
0.0309157
0.0351257
0.0337244
0.0130001
0.0242779
0.0362372
0.0210682
0.038198
0.00342674
0.00162263
1.82672e-05
0.00308123
0.00198081
0.0052316
0.00836143
2.32917e-05
0.013635
0.0301227
0.0592145
0.112048
0.104826
0.0379486
0.158571
0.252545
0.202648
0.386306
)
;

boundaryField
{
    aggregate
    {
        type            calculated;
        value           uniform 0;
    }
    XY-Zmin
    {
        type            calculated;
        value           uniform 0;
    }
    YZ-Xmin
    {
        type            calculated;
        value           nonuniform List<scalar> 9(0.0284648 0.0215325 0.0254086 0.022935 0.0139444 0.0193989 0.0297021 0.021693 0.0289808);
    }
    XZ-Ymin
    {
        type            calculated;
        value           uniform 0;
    }
    XY-Zmax
    {
        type            calculated;
        value           uniform 0;
    }
    XZ-Ymax
    {
        type            calculated;
        value           uniform 0;
    }
    YZ-Xmax
    {
        type            calculated;
        value           nonuniform List<scalar> 9(0.0315456 0.060098 0.111719 0.102846 0.039187 0.15636 0.24428 0.190881 0.381846);
    }
}


// ************************************************************************* //
