/*--------------------------------*- C++ -*----------------------------------*\
| =========                 |                                                 |
| \\      /  F ield         | OpenFOAM: The Open Source CFD Toolbox           |
|  \\    /   O peration     | Version:  2312                                  |
|   \\  /    A nd           | Website:  www.openfoam.com                      |
|    \\/     M anipulation  |                                                 |
\*---------------------------------------------------------------------------*/
FoamFile
{
    version     2.0;
    format      ascii;
    arch        "LSB;label=32;scalar=64";
    class       volSymmTensorField;
    location    "50";
    object      turbulenceProperties:devReff;
}
// * * * * * * * * * * * * * * * * * * * * * * * * * * * * * * * * * * * * * //

dimensions      [0 2 -2 0 0 0 0];

internalField   nonuniform List<symmTensor> 
27
(
(0.00295654 -0.00673512 -0.0069524 -0.00212858 -0.0008357 -0.000827955)
(0.00251422 -0.00596431 -0.0021173 -0.00173179 -0.000416182 -0.000782429)
(0.000287094 -0.00517011 0.00548687 -0.000892891 0.000383231 0.000605797)
(0.00162615 -0.00183488 -0.00697828 -0.000943156 -0.000747967 -0.000682994)
(0.00156403 -0.00148188 -0.00192203 -0.000818603 3.39639e-05 -0.000745432)
(-0.000769978 0.00021669 0.00519929 0.000215473 0.00059774 0.000554505)
(-0.00126886 0.0057757 -0.00517376 0.00128905 -0.000633125 -2.01848e-05)
(-0.0010048 0.00469135 -3.77037e-05 0.0010414 0.000163956 -3.65992e-05)
(-0.00101644 0.00592125 0.0056093 0.000908121 0.000732457 0.000108314)
(-8.67491e-05 -0.0020681 -0.00201537 -9.87341e-05 -0.000278005 0.000185483)
(-6.72302e-05 -0.0021342 -0.000805111 -0.000113955 -0.000116657 0.000181185)
(0.00058281 -0.00261107 0.00260834 -0.000582883 0.00019425 7.31932e-08)
(-0.000392945 -0.00108249 -0.00233771 0.000209321 -9.28055e-05 0.000183624)
(-0.000478447 -0.000960157 -0.000949714 0.00026278 -1.48791e-05 0.000215667)
(3.96351e-05 -0.000119048 0.00306033 -4.24193e-05 0.0001452 2.78425e-06)
(-7.38262e-05 0.00333058 -0.00320526 0.000257466 -0.000236005 -0.000183639)
(-0.000374186 0.00314249 3.63048e-05 0.000384826 3.65415e-05 -1.06396e-05)
(-0.000538692 0.00343566 0.00331573 0.000408746 0.000325037 0.000129945)
(0.000222828 -0.00468091 -0.00450732 -0.000142117 -0.000140489 -8.0711e-05)
(0.00349722 -0.0156163 0.00192367 -0.00144521 0.000415059 -0.00205201)
(0.00562949 -0.0241412 0.0216016 -0.00236655 0.00130679 -0.00326294)
(0.00467573 -0.00159694 -0.0304856 -0.000993212 0.00197808 -0.00368252)
(0.00577459 -0.00848072 -0.0025725 -0.00165481 -0.00233763 -0.00411978)
(0.0042227 -0.0114937 0.0467086 -0.000515771 -0.00353525 -0.00370692)
(0.00813698 0.0510155 -0.0576532 -0.00608238 0.00252585 -0.0020546)
(0.000377696 0.0617334 -0.00632847 -0.00218839 -0.00122004 0.00181069)
(-0.00651929 0.0813461 0.0863465 -0.000135284 9.99214e-05 0.00665457)
)
;

boundaryField
{
    aggregate
    {
        type            calculated;
        value           nonuniform List<symmTensor> 
24
(
(0.224471 -1.21353 1.06245 -0.271291 0.127104 0.0468202)
(2.0577 0.152092 -0.0314012 -1.03286 -0.00515528 -1.02484)
(-0.0204365 1.39557 0.676186 0.185946 0.099245 -0.16551)
(0.0904539 0.511981 -1.43949 0.0830272 -0.14139 -0.173481)
(1.98173 0.130065 0.0593211 -0.993942 -0.00269622 -0.987792)
(-0.00546008 1.2609 0.805759 0.112728 0.160815 -0.107267)
(0.13934 -0.990721 1.28272 -0.176085 0.147521 0.0367454)
(2.15458 0.167456 -0.0506461 -1.0781 -0.00465526 -1.07648)
(0.174671 -1.2316 -1.04445 -0.22751 -0.109317 0.0528388)
(0.0675506 0.639254 -1.40199 0.0816018 -0.126663 -0.149152)
(2.01504 0.150087 0.0387478 -1.00778 0.000246434 -1.00725)
(0.182621 -1.26874 -0.785552 -0.2009 -0.117678 0.0182788)
(0.0170173 -0.746957 0.625886 -0.138876 0.0797093 0.121859)
(-1.22199 -0.169417 -0.0612628 0.609123 -0.00366516 0.61287)
(-0.11962 0.831684 0.405954 0.174574 0.0948181 -0.0549533)
(-0.01618 0.350008 -1.04875 0.092653 -0.0852425 -0.076473)
(-1.4476 -0.142243 -0.0597252 0.721685 -0.00167315 0.725918)
(-0.103051 0.929921 0.592341 0.119554 0.0978963 -0.0165027)
(-0.00113594 -0.828772 0.994644 -0.0347909 0.0807326 0.0359268)
(-1.7156 -0.104253 -0.0204321 0.857994 -0.00141693 0.857602)
(-0.0135671 -0.988679 -0.807464 -0.0636576 -0.0416732 0.0772247)
(-0.0829616 0.50653 -1.24056 0.0791344 -0.050408 0.00382716)
(-1.75931 -0.0767112 -0.0316908 0.880016 -0.000228548 0.879292)
(-0.0159616 -1.10511 -0.679667 -0.0280444 -0.0389344 0.0440061)
)
;
    }
    XY-Zmin
    {
        type            calculated;
        value           nonuniform List<symmTensor> 9((0.219667 -0.507189 -1.37769 -0.163268 -0.174048 -0.0563991) (0.113162 -0.138156 -1.4333 -0.0802919 -0.159621 -0.0328705) (-0.134897 0.608343 -1.08512 0.134522 -0.128523 0.000375008) (-0.00223208 -0.331925 -0.812954 -0.00415565 -0.128802 0.00638773) (-0.0816719 -0.1997 -1.14266 0.0294356 -0.0684247 0.0522363) (-0.0161614 0.692068 -1.34452 0.0526783 -0.0804993 -0.0365169) (0.0164703 -0.315051 -0.656785 -0.00809254 -0.027982 -0.00837778) (0.0558068 -0.0188584 -0.69596 -0.0111381 0.0499194 -0.0446687) (0.0790832 0.50296 -1.04737 -0.0611051 0.064496 -0.0179781));
    }
    YZ-Xmin
    {
        type            calculated;
        value           nonuniform List<symmTensor> 9((-0.00246345 -0.00522973 -0.0050728 0.000757082 -0.00060995 0.00170637) (-0.00210737 -0.00490372 -0.00205492 0.000683566 -0.000324506 0.00142381) (0.000190743 -0.00495801 0.00507508 -0.00083721 0.000379393 0.000646467) (-0.00327617 -0.00166989 -0.00501623 0.00154425 -0.000539542 0.00173192) (-0.00251745 -0.00159632 -0.00199565 0.00122701 2.94416e-05 0.00129044) (-0.000940871 0.000558069 0.0053186 0.000288782 0.00064054 0.000652089) (-0.00134149 0.00609828 -0.0055051 0.00136895 -0.00067529 -2.74684e-05) (-0.00143606 0.00592931 -5.37691e-05 0.00140438 0.000208779 3.16778e-05) (-0.00111481 0.00593777 0.00543856 0.000945359 0.000710566 0.000169455));
    }
    XZ-Ymin
    {
        type            calculated;
        value           nonuniform List<symmTensor> 9((0.29483 -1.35174 -0.51872 -0.307297 -0.0712233 0.0124673) (0.262599 -1.28639 -0.167415 -0.264533 -0.0754977 0.00193383) (0.0677614 -0.940885 0.506802 -0.16496 0.00875966 0.0971988) (0.0461153 -0.806018 -0.320491 -0.135522 -0.071428 0.0894067) (0.0351114 -0.949939 -0.1407 -0.113635 -0.0515787 0.0785241) (0.14723 -0.875911 0.471131 -0.189203 0.0318165 0.0419732) (0.0388877 -0.643955 -0.303367 -0.0573455 -0.00643147 0.0184578) (0.077633 -0.506709 0.034195 -0.0566231 0.0206659 -0.0210099) (0.0884347 -0.498329 0.263573 -0.0683678 0.0275428 -0.020067));
    }
    XY-Zmax
    {
        type            calculated;
        value           nonuniform List<symmTensor> 9((0.0104153 -0.477544 0.939185 -0.0985756 0.0811299 0.0881603) (-0.0971336 0.0226843 1.04071 0.00602866 0.0821721 0.091105) (-0.0981328 0.56315 1.06513 0.0849053 0.106661 0.0132274) (0.103624 -0.471623 0.907634 -0.106929 0.087546 0.00330428) (-0.0114174 -0.0237075 1.22054 -0.0277579 0.0603447 0.0391753) (-0.103888 0.634511 1.21548 0.0710886 0.0925714 0.0327991) (0.0727121 -0.29456 0.516545 -0.0248523 0.0373553 -0.0478598) (0.038153 -0.112308 0.950112 -0.00814767 -0.036735 -0.0300054) (-0.066385 0.673288 1.45476 -0.0135457 0.00967439 0.0799306));
    }
    XZ-Ymax
    {
        type            calculated;
        value           nonuniform List<symmTensor> 9((-0.173525 1.10597 -0.544943 0.215529 -0.0654588 -0.042004) (-0.172418 1.11156 -0.00477039 0.222337 0.0151774 -0.0499187) (-0.131741 1.09911 0.533481 0.156511 0.0618619 -0.02477) (-0.040966 1.39418 -0.666027 0.10475 -0.0414188 -0.0637843) (-0.124201 1.3323 0.00774141 0.170881 0.0189966 -0.0466803) (-0.128512 1.24813 0.612361 0.133538 0.0606315 -0.00502593) (0.10108 1.07854 -0.568401 -0.101681 0.0338576 0.000601174) (0.00923276 1.42548 -0.0652086 -0.0332311 0.0250202 0.0239984) (-0.0586312 1.4815 0.714676 0.00822463 0.0303829 0.0504066));
    }
    YZ-Xmax
    {
        type            calculated;
        value           nonuniform List<symmTensor> 9((-0.000130905 -0.00499914 -0.00463442 3.47493e-05 -0.000140489 9.61557e-05) (-0.000440484 -0.0164731 0.00114224 0.000523641 0.000415059 -8.31565e-05) (0.000652152 -0.0250698 0.0210154 0.000122115 0.00130679 -0.000774267) (-0.0015504 -0.00411315 -0.0303392 0.00211986 0.00197808 -0.000569451) (-0.000760727 -0.0111008 -0.0033064 0.00161285 -0.00233763 -0.000852122) (-0.000458628 -0.0134889 0.04573 0.00182489 -0.00353525 -0.00136626) (0.00300563 0.0475859 -0.0575038 -0.00351671 0.00252585 0.000511073) (0.00231993 0.0581801 -0.00577677 -0.0031595 -0.00122004 0.000839575) (-0.00101331 0.0787728 0.0870443 -0.00288827 9.99214e-05 0.00390158));
    }
}


// ************************************************************************* //
