/*--------------------------------*- C++ -*----------------------------------*\
| =========                 |                                                 |
| \\      /  F ield         | OpenFOAM: The Open Source CFD Toolbox           |
|  \\    /   O peration     | Version:  2312                                  |
|   \\  /    A nd           | Website:  www.openfoam.com                      |
|    \\/     M anipulation  |                                                 |
\*---------------------------------------------------------------------------*/
FoamFile
{
    version     2.0;
    format      ascii;
    arch        "LSB;label=32;scalar=64";
    class       volScalarField;
    location    "50";
    object      turbulenceProperties:I;
}
// * * * * * * * * * * * * * * * * * * * * * * * * * * * * * * * * * * * * * //

dimensions      [0 0 0 0 0 0 0];

internalField   nonuniform List<scalar> 
27
(
0.00560986
0.00469848
0.00593
0.0046872
0.00301953
0.00466452
0.00562515
0.00425755
0.00582604
0.00203027
0.00127802
0.000140642
0.00160864
0.0012723
0.00201991
0.00241198
0.000130058
0.0032386
0.00671833
0.0107591
0.0149841
0.0122322
0.00691606
0.0127613
0.0151837
0.0116544
0.0156637
)
;

boundaryField
{
    aggregate
    {
        type            calculated;
        value           uniform 0;
    }
    XY-Zmin
    {
        type            calculated;
        value           uniform 0;
    }
    YZ-Xmin
    {
        type            calculated;
        value           nonuniform List<scalar> 9(0.00529249 0.00460372 0.00500538 0.00474998 0.00370458 0.00437241 0.0054099 0.00462316 0.00534408);
    }
    XZ-Ymin
    {
        type            calculated;
        value           uniform 0;
    }
    XY-Zmax
    {
        type            calculated;
        value           uniform 0;
    }
    XZ-Ymax
    {
        type            calculated;
        value           uniform 0;
    }
    YZ-Xmax
    {
        type            calculated;
        value           nonuniform List<scalar> 9(0.00687449 0.010829 0.0149419 0.0121033 0.00702293 0.0126716 0.0149384 0.0113185 0.0155784);
    }
}


// ************************************************************************* //
