/*--------------------------------*- C++ -*----------------------------------*\
| =========                 |                                                 |
| \\      /  F ield         | OpenFOAM: The Open Source CFD Toolbox           |
|  \\    /   O peration     | Version:  2312                                  |
|   \\  /    A nd           | Website:  www.openfoam.com                      |
|    \\/     M anipulation  |                                                 |
\*---------------------------------------------------------------------------*/
FoamFile
{
    version     2.0;
    format      ascii;
    arch        "LSB;label=32;scalar=64";
    class       volSymmTensorField;
    location    "50";
    object      turbulenceProperties:R;
}
// * * * * * * * * * * * * * * * * * * * * * * * * * * * * * * * * * * * * * //

dimensions      [0 2 -2 0 0 0 0];

internalField   nonuniform List<symmTensor> 
27
(
(0.0325067 -0.00427725 -0.00441523 0.0292773 -0.000530725 0.0301033)
(0.0221445 -0.00363906 -0.00129185 0.0195538 -0.000253929 0.0201331)
(0.0235621 -0.00261095 0.00277092 0.0229662 0.000193535 0.0237231)
(0.0235225 -0.00117309 -0.00446141 0.0218799 -0.000478195 0.0220462)
(0.00955288 -0.000839596 -0.00108898 0.00820293 1.92431e-05 0.00824439)
(0.0158278 0.000100587 0.0024135 0.0162853 0.00027747 0.0164426)
(0.023566 0.00269552 -0.0024146 0.0247597 -0.00029548 0.0241487)
(0.0136804 0.00170441 -1.36981e-05 0.0144238 5.95669e-05 0.0140322)
(0.0249419 0.00304911 0.00288847 0.0259329 0.000377173 0.0255211)
(0.00228298 -3.61915e-05 -3.52687e-05 0.00228277 -4.86505e-06 0.00228774)
(0.00108133 -1.34927e-05 -5.09001e-06 0.00108103 -7.37521e-07 0.0010829)
(1.21783e-05 -7.86829e-10 7.86008e-10 1.2178e-05 5.8536e-11 1.21782e-05)
(0.00204711 -1.93975e-05 -4.18903e-05 0.0020579 -1.66302e-06 0.00205744)
(0.00130955 -2.20532e-05 -2.18133e-05 0.00132657 -3.41748e-07 0.00132549)
(0.00348924 -4.52112e-06 0.000116223 0.00348612 5.51428e-06 0.00348784)
(0.00557113 0.000142363 -0.000137006 0.0055853 -1.00878e-05 0.00556644)
(1.55275e-05 2.15622e-09 2.49105e-11 1.55281e-05 2.5073e-11 1.55278e-05)
(0.00902917 0.000387923 0.000374381 0.00913614 3.67001e-05 0.00910466)
(0.0202096 -0.00268545 -0.00258585 0.0200003 -8.05986e-05 0.0200355)
(0.0425341 -0.0136538 0.00168192 0.0382127 0.000362899 0.0376822)
(0.0798373 -0.0220374 0.0197191 0.0725381 0.00119291 0.0717198)
(0.0742173 -0.00147988 -0.0282508 0.0689639 0.00183307 0.0664717)
(0.0307299 -0.00797589 -0.00241937 0.0237428 -0.00219847 0.0214246)
(0.109713 -0.0108854 0.0442367 0.105226 -0.00334816 0.102204)
(0.176087 0.0484214 -0.0547216 0.16259 0.00239741 0.166413)
(0.135458 0.0588482 -0.0060327 0.133012 -0.00116302 0.136825)
(0.251257 0.07836 0.0831769 0.257407 9.62534e-05 0.263948)
)
;

boundaryField
{
    aggregate
    {
        type            calculated;
        value           nonuniform List<symmTensor> 
24
(
(0.223004 -1.2056 1.0555 -0.269518 0.126274 0.0465141)
(1.93597 0.143094 -0.0295436 -0.971758 -0.00485031 -0.96421)
(-0.0202601 1.38352 0.67035 0.184341 0.0983884 -0.164081)
(0.0896597 0.507486 -1.42685 0.0822982 -0.140149 -0.171958)
(1.86248 0.122238 0.0557512 -0.934129 -0.00253397 -0.928349)
(-0.00542378 1.25252 0.800402 0.111978 0.159746 -0.106554)
(0.138161 -0.982345 1.27188 -0.174596 0.146273 0.0364347)
(2.02972 0.157752 -0.0477112 -1.01562 -0.00438549 -1.0141)
(0.173552 -1.22371 -1.03776 -0.226053 -0.108617 0.0525005)
(0.0671047 0.635034 -1.39274 0.0810632 -0.125827 -0.148168)
(1.89467 0.141122 0.0364332 -0.947585 0.000231713 -0.947085)
(0.181029 -1.25768 -0.778706 -0.199149 -0.116652 0.0181195)
(0.0168771 -0.740807 0.620733 -0.137733 0.079053 0.120856)
(-1.13093 -0.156791 -0.0566973 0.56373 -0.00339202 0.567197)
(-0.11832 0.822641 0.40154 0.172675 0.0937872 -0.0543558)
(-0.0160165 0.34647 -1.03815 0.0917164 -0.0843808 -0.0756999)
(-1.34731 -0.132388 -0.0555873 0.671685 -0.00155723 0.675625)
(-0.102262 0.922802 0.587806 0.118639 0.0971469 -0.0163764)
(-0.00112528 -0.820994 0.985309 -0.0344644 0.0799749 0.0355897)
(-1.60524 -0.0975474 -0.0191179 0.802805 -0.00132579 0.802438)
(-0.0134707 -0.981652 -0.801725 -0.0632052 -0.041377 0.0766759)
(-0.0823785 0.50297 -1.23185 0.0785783 -0.0500538 0.00380026)
(-1.6474 -0.0718318 -0.029675 0.82404 -0.000214011 0.823363)
(-0.0158135 -1.09486 -0.67336 -0.0277842 -0.038573 0.0435977)
)
;
    }
    XY-Zmin
    {
        type            calculated;
        value           nonuniform List<symmTensor> 9((0.218603 -0.504731 -1.37101 -0.162477 -0.173205 -0.0561257) (0.11262 -0.137494 -1.42644 -0.0799072 -0.158856 -0.0327131) (-0.134214 0.605263 -1.07963 0.133841 -0.127872 0.00037311) (-0.00221842 -0.329893 -0.807977 -0.00413021 -0.128013 0.00634863) (-0.0812372 -0.198637 -1.13658 0.0292789 -0.0680605 0.0519583) (-0.016087 0.68888 -1.33833 0.0524357 -0.0801284 -0.0363487) (0.016366 -0.313056 -0.652625 -0.00804129 -0.0278047 -0.00832472) (0.0554604 -0.0187413 -0.69164 -0.011069 0.0496095 -0.0443914) (0.0786753 0.500366 -1.04197 -0.0607899 0.0641634 -0.0178854));
    }
    YZ-Xmin
    {
        type            calculated;
        value           nonuniform List<symmTensor> 9((0.0177448 -0.00261486 -0.0025364 0.0193551 -0.000304975 0.0198297) (0.0133013 -0.00245186 -0.00102746 0.0146968 -0.000162253 0.0150669) (0.0170344 -0.002479 0.00253754 0.0165204 0.000189696 0.0172623) (0.0136519 -0.000834947 -0.00250812 0.0160621 -0.000269771 0.0161559) (0.00803755 -0.000798159 -0.000997823 0.00990978 1.47208e-05 0.0099415) (0.0124621 0.000279035 0.0026593 0.013077 0.00032027 0.0132586) (0.0191306 0.00304914 -0.00275255 0.0204858 -0.000337645 0.0197876) (0.013744 0.00296465 -2.68845e-05 0.0151642 0.000104389 0.0144778) (0.0187631 0.00296889 0.00271928 0.0197932 0.000355283 0.0194053));
    }
    XZ-Ymin
    {
        type            calculated;
        value           nonuniform List<symmTensor> 9((0.293387 -1.34513 -0.516183 -0.305794 -0.070875 0.0124064) (0.261305 -1.28005 -0.166589 -0.263229 -0.0751255 0.0019243) (0.0673982 -0.935843 0.504086 -0.164076 0.00871272 0.0966779) (0.0458304 -0.801038 -0.318511 -0.134685 -0.0709867 0.0888543) (0.0349118 -0.944538 -0.1399 -0.112989 -0.0512854 0.0780776) (0.146415 -0.871062 0.468522 -0.188155 0.0316403 0.0417408) (0.0386414 -0.639877 -0.301446 -0.0569823 -0.00639074 0.0183409) (0.0770842 -0.503127 0.0339533 -0.0562228 0.0205198 -0.0208614) (0.0878031 -0.49477 0.261691 -0.0678795 0.027346 -0.0199236));
    }
    XY-Zmax
    {
        type            calculated;
        value           nonuniform List<symmTensor> 9((0.0103595 -0.474985 0.934152 -0.0980473 0.0806951 0.0876878) (-0.0966365 0.0225682 1.03538 0.0059978 0.0817515 0.0906387) (-0.0976323 0.560278 1.0597 0.0844723 0.106117 0.01316) (0.103051 -0.469012 0.902609 -0.106337 0.0870613 0.00328599) (-0.0113622 -0.023593 1.21464 -0.0276238 0.0600532 0.0389861) (-0.103389 0.631463 1.20964 0.0707472 0.0921268 0.0326416) (0.0721928 -0.292457 0.512855 -0.0246748 0.0370885 -0.047518) (0.0379464 -0.111699 0.944966 -0.00810354 -0.036536 -0.0298429) (-0.0660905 0.670302 1.44831 -0.0134856 0.00963148 0.0795761));
    }
    XZ-Ymax
    {
        type            calculated;
        value           nonuniform List<symmTensor> 9((-0.172646 1.10037 -0.542183 0.214437 -0.0651274 -0.0417913) (-0.171551 1.10596 -0.00474638 0.221218 0.015101 -0.0496675) (-0.131069 1.0935 0.53076 0.155713 0.0615464 -0.0246436) (-0.0407772 1.38775 -0.662959 0.104268 -0.041228 -0.0634904) (-0.123618 1.32605 0.0077051 0.17008 0.0189075 -0.0464614) (-0.127895 1.24214 0.609419 0.132897 0.0603403 -0.00500179) (0.100558 1.07298 -0.56547 -0.101156 0.033683 0.000598073) (0.00919089 1.41901 -0.0649128 -0.0330804 0.0249067 0.0238895) (-0.0583712 1.47493 0.711506 0.00818816 0.0302481 0.050183));
    }
    YZ-Xmax
    {
        type            calculated;
        value           nonuniform List<symmTensor> 9((0.0209553 -0.00286801 -0.00265877 0.0210503 -8.05986e-05 0.0210856) (0.0396802 -0.0144029 0.000998693 0.0405232 0.000362899 0.0399926) (0.0750748 -0.0228851 0.019184 0.074591 0.00119291 0.0737727) (0.0671275 -0.00381162 -0.0281151 0.0705287 0.00183307 0.0680365) (0.0254092 -0.01044 -0.00310958 0.0276415 -0.00219847 0.0253232) (0.103806 -0.012775 0.0433099 0.105968 -0.00334816 0.102946) (0.165706 0.0451662 -0.0545799 0.159516 0.00239741 0.163339) (0.129466 0.055461 -0.00550679 0.124242 -0.00116302 0.128055) (0.253588 0.0758811 0.083849 0.251782 9.62534e-05 0.258322));
    }
}


// ************************************************************************* //
