/*--------------------------------*- C++ -*----------------------------------*\
| =========                 |                                                 |
| \\      /  F ield         | OpenFOAM: The Open Source CFD Toolbox           |
|  \\    /   O peration     | Version:  2312                                  |
|   \\  /    A nd           | Website:  www.openfoam.com                      |
|    \\/     M anipulation  |                                                 |
\*---------------------------------------------------------------------------*/
FoamFile
{
    version     2.0;
    format      ascii;
    arch        "LSB;label=32;scalar=64";
    class       volScalarField;
    location    "50";
    object      turbulenceProperties:L;
}
// * * * * * * * * * * * * * * * * * * * * * * * * * * * * * * * * * * * * * //

dimensions      [0 1 0 0 0 0 0];

internalField   nonuniform List<scalar> 
27
(
0.00109504
0.00131457
0.00117944
0.00128177
0.00198315
0.00140372
0.00114961
0.00148644
0.00113451
0.00475319
0.00779162
0.253156
0.00499891
0.00605996
0.00352605
0.00275379
0.202281
0.00196012
0.00130701
0.00147443
0.0013607
0.00160604
0.00318078
0.00172925
0.00142157
0.00171722
0.00157062
)
;

boundaryField
{
    aggregate
    {
        type            calculated;
        value           uniform 0;
    }
    XY-Zmin
    {
        type            calculated;
        value           uniform 0;
    }
    YZ-Xmin
    {
        type            calculated;
        value           nonuniform List<scalar> 9(0.00138923 0.00159729 0.00147041 0.00154768 0.00198486 0.00168284 0.00135999 0.00159137 0.00137681);
    }
    XZ-Ymin
    {
        type            calculated;
        value           uniform 0;
    }
    XY-Zmax
    {
        type            calculated;
        value           uniform 0;
    }
    XZ-Ymax
    {
        type            calculated;
        value           uniform 0;
    }
    YZ-Xmax
    {
        type            calculated;
        value           nonuniform List<scalar> 9(0.00127719 0.00146355 0.0013627 0.00162143 0.00313012 0.00174144 0.00144541 0.00176936 0.00157977);
    }
}


// ************************************************************************* //
