/*--------------------------------*- C++ -*----------------------------------*\
| =========                 |                                                 |
| \\      /  F ield         | OpenFOAM: The Open Source CFD Toolbox           |
|  \\    /   O peration     | Version:  2312                                  |
|   \\  /    A nd           | Website:  www.openfoam.com                      |
|    \\/     M anipulation  |                                                 |
\*---------------------------------------------------------------------------*/
FoamFile
{
    version     2.0;
    format      ascii;
    arch        "LSB;label=32;scalar=64";
    class       volVectorField;
    location    "50";
    object      U;
}
// * * * * * * * * * * * * * * * * * * * * * * * * * * * * * * * * * * * * * //

dimensions      [0 1 -1 0 0 0 0];

internalField   nonuniform List<vector> 
27
(
(30.9488 3.92258 0.214976)
(30.3192 3.50027 1.45601)
(25.6165 2.8098 1.34968)
(31.7884 3.58265 -0.135177)
(30.632 3.33707 1.04908)
(27.1886 1.79865 1.19399)
(27.4431 3.2175 -0.00512877)
(27.6283 3.39063 0.174563)
(27.2859 2.38824 0.132804)
(23.2517 3.57918 0.876766)
(25.5797 2.60064 1.10395)
(24.6498 2.80046 0.467546)
(28.1121 1.84379 -0.33568)
(28.5316 1.2658 0.346992)
(29.1838 1.43223 1.04058)
(30.902 1.79566 0.116985)
(30.1923 2.48844 0.464412)
(29.3773 1.87155 0.366156)
(21.0705 0.960365 -0.16998)
(18.4422 0.534265 -0.78978)
(18.1923 1.19751 -0.550613)
(21.5474 -1.65835 -0.126846)
(22.9317 -1.67745 -0.490563)
(25.4704 -0.638268 0.00480718)
(26.9733 -1.62852 0.265639)
(31.5129 -0.801399 0.973164)
(32.3868 -0.00553982 0.875492)
)
;

boundaryField
{
    aggregate
    {
        type            noSlip;
    }
    XY-Zmin
    {
        type            noSlip;
    }
    YZ-Xmin
    {
        type            freestreamVelocity;
        freestreamValue uniform (25.75 3.62 0);
        value           nonuniform List<vector> 9((25.7753 3.62147 0.00104549) (25.7722 3.61942 0.00707479) (25.7494 3.61606 0.00655763) (25.7793 3.61982 -0.000656569) (25.7737 3.61863 0.00509462) (25.757 3.61118 0.0057822) (25.7582 3.61804 -2.49284e-05) (25.7591 3.61888 0.000848862) (25.7575 3.61402 0.000644206));
    }
    XZ-Ymin
    {
        type            noSlip;
    }
    XY-Zmax
    {
        type            noSlip;
    }
    XZ-Ymax
    {
        type            noSlip;
    }
    YZ-Xmax
    {
        type            freestreamVelocity;
        freestreamValue uniform (25.75 3.62 0);
        value           nonuniform List<vector> 9((21.0726 0.96153 -0.169905) (18.4593 0.541487 -0.787931) (18.2166 1.20532 -0.54884) (21.5728 -1.62641 -0.126078) (22.951 -1.64115 -0.487202) (25.4717 -0.617632 0.00478388) (26.9659 -1.59673 0.26403) (31.4924 -0.785671 0.969703) (32.3757 0.000533168 0.874025));
    }
}


// ************************************************************************* //
