/*--------------------------------*- C++ -*----------------------------------*\
| =========                 |                                                 |
| \\      /  F ield         | OpenFOAM: The Open Source CFD Toolbox           |
|  \\    /   O peration     | Version:  2312                                  |
|   \\  /    A nd           | Website:  www.openfoam.com                      |
|    \\/     M anipulation  |                                                 |
\*---------------------------------------------------------------------------*/
FoamFile
{
    version     2.0;
    format      ascii;
    arch        "LSB;label=32;scalar=64";
    class       volScalarField;
    location    "350";
    object      div(phi);
}
// * * * * * * * * * * * * * * * * * * * * * * * * * * * * * * * * * * * * * //

dimensions      [0 0 -1 0 0 0 0];

internalField   nonuniform List<scalar> 
27
(
-2.80913
14.4277
-5.53564
-13.9791
26.0893
5.22512
26.5243
21.1831
32.0157
32.1015
-44.4783
-18.5435
-67.0013
-34.4107
-51.1612
-40.1058
-18.3586
-28.0844
9.66015
27.4829
-5.63497
52.2103
78.4506
30.6499
22.6928
7.65372
2.07242
)
;

boundaryField
{
    aggregate
    {
        type            extrapolatedCalculated;
        value           nonuniform List<scalar> 
24
(
-2.80913
-2.80913
-2.80913
14.4277
14.4277
14.4277
-13.9791
-13.9791
-13.9791
26.0893
26.0893
26.0893
32.1015
32.1015
32.1015
-44.4783
-44.4783
-44.4783
-67.0013
-67.0013
-67.0013
-34.4107
-34.4107
-34.4107
)
;
    }
    XY-Zmin
    {
        type            extrapolatedCalculated;
        value           nonuniform List<scalar> 9(-2.80913 -13.9791 26.5243 32.1015 -67.0013 -40.1058 9.66015 52.2103 22.6928);
    }
    YZ-Xmin
    {
        type            extrapolatedCalculated;
        value           nonuniform List<scalar> 9(-2.80913 14.4277 -5.53564 -13.9791 26.0893 5.22512 26.5243 21.1831 32.0157);
    }
    XZ-Ymin
    {
        type            extrapolatedCalculated;
        value           nonuniform List<scalar> 9(-2.80913 14.4277 -5.53564 32.1015 -44.4783 -18.5435 9.66015 27.4829 -5.63497);
    }
    XY-Zmax
    {
        type            extrapolatedCalculated;
        value           nonuniform List<scalar> 9(-5.53564 5.22512 32.0157 -18.5435 -51.1612 -28.0844 -5.63497 30.6499 2.07242);
    }
    XZ-Ymax
    {
        type            extrapolatedCalculated;
        value           nonuniform List<scalar> 9(26.5243 21.1831 32.0157 -40.1058 -18.3586 -28.0844 22.6928 7.65372 2.07242);
    }
    YZ-Xmax
    {
        type            extrapolatedCalculated;
        value           nonuniform List<scalar> 9(9.66015 27.4829 -5.63497 52.2103 78.4506 30.6499 22.6928 7.65372 2.07242);
    }
}


// ************************************************************************* //
