/*--------------------------------*- C++ -*----------------------------------*\
| =========                 |                                                 |
| \\      /  F ield         | OpenFOAM: The Open Source CFD Toolbox           |
|  \\    /   O peration     | Version:  2312                                  |
|   \\  /    A nd           | Website:  www.openfoam.com                      |
|    \\/     M anipulation  |                                                 |
\*---------------------------------------------------------------------------*/
FoamFile
{
    version     2.0;
    format      ascii;
    arch        "LSB;label=32;scalar=64";
    class       volScalarField;
    location    "350";
    object      magR;
}
// * * * * * * * * * * * * * * * * * * * * * * * * * * * * * * * * * * * * * //

dimensions      [0 2 -2 0 0 0 0];

internalField   nonuniform List<scalar> 
27
(
0.0471916
0.0324309
0.0486522
0.0414918
0.015941
0.0372727
0.0564574
0.03527
0.0422134
0.0352269
0.0267876
0.0469677
0.016051
0.00110428
0.00944754
0.0132733
0.0172673
0.0500793
0.000433078
0.00137074
0.00563227
0.00212239
0.0193213
0.18377
0.309211
0.386382
0.957751
)
;

boundaryField
{
    aggregate
    {
        type            calculated;
        value           nonuniform List<scalar> 
24
(
2.30036
2.3801
2.19267
2.16116
2.28897
2.11987
2.29326
2.49679
2.29269
2.1796
2.32962
2.11573
1.38374
1.4051
1.31928
1.55702
1.66259
1.5614
1.81797
1.97103
1.79618
1.88645
2.02061
1.81936
)
;
    }
    XY-Zmin
    {
        type            calculated;
        value           nonuniform List<scalar> 9(2.09912 2.04398 1.7699 1.2475 1.63765 2.13283 1.02464 0.983673 1.6402);
    }
    YZ-Xmin
    {
        type            calculated;
        value           nonuniform List<scalar> 9(0.0333088 0.025182 0.0297716 0.0268237 0.0162761 0.0227289 0.0348016 0.025417 0.0339564);
    }
    XZ-Ymin
    {
        type            calculated;
        value           nonuniform List<scalar> 9(2.08363 1.86586 1.51683 1.23472 1.35971 1.42024 1.00294 0.720445 0.800506);
    }
    XY-Zmax
    {
        type            calculated;
        value           nonuniform List<scalar> 9(1.49229 1.47513 1.70682 1.45135 1.72093 1.9386 0.841415 1.34757 2.25924);
    }
    XZ-Ymax
    {
        type            calculated;
        value           nonuniform List<scalar> 9(1.75943 1.58987 1.73339 2.17971 1.88801 1.96733 1.72171 2.00955 2.3174);
    }
    YZ-Xmax
    {
        type            calculated;
        value           nonuniform List<scalar> 9(0.000453542 0.00139122 0.0056158 0.00208232 0.020064 0.181248 0.29905 0.36398 0.946682);
    }
}


// ************************************************************************* //
