/*--------------------------------*- C++ -*----------------------------------*\
| =========                 |                                                 |
| \\      /  F ield         | OpenFOAM: The Open Source CFD Toolbox           |
|  \\    /   O peration     | Version:  2312                                  |
|   \\  /    A nd           | Website:  www.openfoam.com                      |
|    \\/     M anipulation  |                                                 |
\*---------------------------------------------------------------------------*/
FoamFile
{
    version     2.0;
    format      ascii;
    arch        "LSB;label=32;scalar=64";
    class       volVectorField;
    location    "350";
    object      momentError;
}
// * * * * * * * * * * * * * * * * * * * * * * * * * * * * * * * * * * * * * //

dimensions      [0 1 -2 0 0 0 0];

internalField   nonuniform List<vector> 
27
(
(-0.00073699 0.00109461 0.00383928)
(-0.0106447 -0.000685187 -0.00217798)
(-0.00305903 -0.017319 0.0168715)
(0.161528 0.00277756 -0.20456)
(-0.0167522 -0.00316023 -0.000786652)
(1.53347 0.0553637 -1.61983)
(-1.18067 -0.78215 2.31619)
(2.37882 0.0860404 -2.48749)
(2.22761 0.262012 -0.44036)
(-0.0642533 -0.0251599 -0.0187256)
(-61.6782 -7.47726 -3.60052)
(-0.0794562 -0.0329061 0.011246)
(-89.6902 -19.9554 21.7693)
(-94.9657 -3.16957 -29.4326)
(-38.4142 -1.67243 -17.7771)
(-56.7007 -8.02205 23.295)
(-156.39 -24.5401 -27.8398)
(-53.4551 -23.9484 -23.569)
(-453.208 -128.103 -39.4545)
(-1164.7 -84.0833 -97.305)
(-898.411 -70.0699 -101.011)
(-1664.28 -192.96 84.9661)
(-1512.21 -345.457 -131.056)
(-918.581 -374.573 -233.865)
(-1061.05 -649.997 -57.7393)
(-50.7964 -809.992 -45.1466)
(547.25 -545.224 38.1643)
)
;

boundaryField
{
    aggregate
    {
        type            calculated;
        value           nonuniform List<vector> 
24
(
(-86.9405 -70.5592 102.527)
(625.786 -11.0183 -0.600158)
(-86.9405 17.7426 16.005)
(437.427 -271.6 578.901)
(1158.99 50.5033 21.0041)
(437.427 135.757 70.226)
(-444.209 -97.9507 84.5914)
(436.447 -50.0834 1.68303)
(-444.209 -345.203 -168.7)
(799.149 -186.369 500.978)
(1676.46 87.0667 27.3698)
(799.149 -61.6975 -58.5201)
(746.37 92.4968 66.8712)
(1220.21 114.868 28.1237)
(746.37 266.889 115.893)
(-1199.43 -5.58568 -256.326)
(-1085.07 -123.15 -52.6996)
(-1199.43 -327.499 -170.683)
(-1973.24 -229.369 192.951)
(-1906.53 -143.531 44.2755)
(-1973.24 -556.119 -193.927)
(-1076.75 -27.9821 -73.8814)
(-935.212 -46.7526 -41.3698)
(-1076.75 -626.044 -375.827)
)
;
    }
    XY-Zmin
    {
        type            calculated;
        value           nonuniform List<vector> 9((-86.9405 -11.0183 119.133) (-444.209 -50.0834 -85.7944) (726.731 84.5697 11.4199) (746.37 114.868 154.641) (-1973.24 -143.531 -45.2551) (-1296.08 -80.0525 45.9816) (-249.657 -118.831 -217.245) (-539.251 -279.516 38.5313) (-448.978 -686.939 30.8636));
    }
    YZ-Xmin
    {
        type            calculated;
        value           nonuniform List<vector> 9((708.558 -0.84515 -0.59722) (794.427 -1.71674 20.902) (-6.47726 4.44468 -7.41746) (807.955 0.518238 1.67386) (1017.41 -7.34061 27.2369) (360.93 -9.41397 4.58874) (801 -11.3966 2.17965) (817.523 -4.73896 1.191) (864.61 -38.9732 3.79535));
    }
    XZ-Ymin
    {
        type            calculated;
        value           nonuniform List<vector> 9((-86.9405 -41.7981 -0.600158) (437.427 -186.35 21.0041) (-141.807 -321.645 -7.45376) (746.37 244.518 28.1237) (-1199.43 -209.934 -52.6996) (-457.173 -1.87623 -8.66423) (-249.657 -482.007 -41.1053) (-657.831 -296.238 -119.03) (-1000.93 -243.669 -97.9089));
    }
    XY-Zmax
    {
        type            calculated;
        value           nonuniform List<vector> 9((-141.807 -15.5726 453.336) (143.597 9.45488 449.18) (875.813 76.7325 67.8038) (-457.173 -51.9609 -434.513) (-1531.5 -74.9885 -331.827) (-878.516 -76.4967 68.7026) (-1000.93 -76.8148 -112.241) (-137.921 -394.062 -188.141) (614.365 -545.238 98.2096));
    }
    XZ-Ymax
    {
        type            calculated;
        value           nonuniform List<vector> 9((726.731 -208.302 2.17898) (587.632 -101.558 1.20898) (875.813 -455.915 3.816) (-1296.08 -667.508 18.5948) (-710.701 -518.389 -36.3688) (-878.516 -152.791 -33.8169) (-448.978 -645.493 -51.6762) (190.388 -652.361 -37.6971) (614.365 -368.865 39.9725));
    }
    YZ-Xmax
    {
        type            calculated;
        value           nonuniform List<vector> 9((-443.483 -128.114 -39.4552) (-1851.55 -84.282 -97.3559) (-1198.46 -70.0259 -101.001) (-2919.41 -194.628 84.9258) (-2773.89 -348.304 -131.32) (-1767.61 -375.204 -233.865) (-1596.73 -650.718 -57.7026) (-367.854 -810.112 -45.12) (301.605 -545.237 38.1674));
    }
}


// ************************************************************************* //
