/*--------------------------------*- C++ -*----------------------------------*\
| =========                 |                                                 |
| \\      /  F ield         | OpenFOAM: The Open Source CFD Toolbox           |
|  \\    /   O peration     | Version:  2312                                  |
|   \\  /    A nd           | Website:  www.openfoam.com                      |
|    \\/     M anipulation  |                                                 |
\*---------------------------------------------------------------------------*/
FoamFile
{
    version     2.0;
    format      ascii;
    arch        "LSB;label=32;scalar=64";
    class       volScalarField;
    location    "350";
    object      nut;
}
// * * * * * * * * * * * * * * * * * * * * * * * * * * * * * * * * * * * * * //

dimensions      [0 2 -1 0 0 0 0];

internalField   nonuniform List<scalar> 
27
(
1.37548e-05
1.28556e-05
1.39992e-05
1.93202e-05
1.42892e-05
1.4414e-05
1.49424e-05
1.13298e-05
9.62339e-06
1.2585e-05
1.16526e-05
1.32011e-05
3.57152e-06
5.49517e-08
9.57499e-07
8.38711e-07
2.73187e-06
1.17017e-05
2.3123e-09
4.25708e-08
3.65242e-07
8.07392e-08
5.14934e-05
0.000168454
0.00018644
0.000322145
0.000534734
)
;

boundaryField
{
    aggregate
    {
        type            nutUSpaldingWallFunction;
        value           nonuniform List<scalar> 
24
(
0.00151989
0.00015904
0.00114859
0.00112896
0.000156174
0.00149397
0.00117274
0.000162563
0.00155175
0.00150509
0.000157405
0.0011374
0.00120447
0.000124189
0.000909719
0.00097929
0.000134338
0.00129634
0.00105554
0.000145463
0.00139699
0.00141285
0.000147213
0.00106754
)
;
    }
    XY-Zmin
    {
        type            nutUSpaldingWallFunction;
        value           nonuniform List<scalar> 9(0.00205354 0.00207761 0.00196503 0.0016236 0.00186849 0.00216075 0.00156887 0.00160092 0.00192882);
    }
    YZ-Xmin
    {
        type            freestream;
        freestreamValue uniform 1e-05;
        value           uniform 1e-05;
    }
    XZ-Ymin
    {
        type            nutUSpaldingWallFunction;
        value           nonuniform List<scalar> 9(0.0020345 0.00201816 0.00185602 0.0016086 0.00174872 0.00179625 0.00156887 0.00140457 0.00139018);
    }
    XY-Zmax
    {
        type            nutUSpaldingWallFunction;
        value           nonuniform List<scalar> 9(0.00185602 0.00194381 0.00195074 0.00179625 0.00206004 0.00207194 0.00139018 0.00183635 0.00224465);
    }
    XZ-Ymax
    {
        type            nutUSpaldingWallFunction;
        value           nonuniform List<scalar> 9(0.00196503 0.00197721 0.00195074 0.00216075 0.00212241 0.00207194 0.00192882 0.00219469 0.00224465);
    }
    YZ-Xmax
    {
        type            freestream;
        freestreamValue uniform 1e-05;
        value           nonuniform List<scalar> 9(2.3123e-09 4.25708e-08 3.65242e-07 8.07392e-08 5.14934e-05 0.000168454 0.00018644 0.000322145 0.000534734);
    }
}


// ************************************************************************* //
