/*--------------------------------*- C++ -*----------------------------------*\
| =========                 |                                                 |
| \\      /  F ield         | OpenFOAM: The Open Source CFD Toolbox           |
|  \\    /   O peration     | Version:  2312                                  |
|   \\  /    A nd           | Website:  www.openfoam.com                      |
|    \\/     M anipulation  |                                                 |
\*---------------------------------------------------------------------------*/
FoamFile
{
    version     2.0;
    format      ascii;
    arch        "LSB;label=32;scalar=64";
    class       surfaceScalarField;
    location    "350";
    object      phi;
}
// * * * * * * * * * * * * * * * * * * * * * * * * * * * * * * * * * * * * * //

dimensions      [0 3 -1 0 0 0 0];

oriented        oriented;

internalField   nonuniform List<scalar> 
54
(
0.0045344
0.0232246
0.0284173
-0.00213529
0.0208333
0.020795
0.0218834
0.0273502
0.000301038
0.0320077
0.00301335
0.0114989
0.222099
0.0139858
0.230654
-0.00440508
0.253344
0.248527
0.027171
0.000542834
0.246172
0.0157268
0.0019715
0.293892
0.0232402
0.310764
0.00446667
0.00239293
0.307679
0.00998877
0.00607239
0.303733
0.0143179
0.209031
-0.0100766
0.1944
-0.00430028
0.207156
0.212062
-0.0151507
-0.00503193
0.220372
-0.0154825
-0.000485181
0.253624
-0.00467557
0.272732
-0.00964797
0.0075422
0.29563
-0.00442923
0.00960716
0.296039
0.00351424
)
;

boundaryField
{
    aggregate
    {
        type            calculated;
        value           uniform 0;
    }
    XY-Zmin
    {
        type            calculated;
        value           uniform 0;
    }
    YZ-Xmin
    {
        type            calculated;
        value           nonuniform List<scalar> 9(-0.257509 -0.257553 -0.257539 -0.257556 -0.257448 -0.257487 -0.257191 -0.257201 -0.257205);
    }
    XZ-Ymin
    {
        type            calculated;
        value           uniform 0;
    }
    XY-Zmax
    {
        type            calculated;
        value           uniform 0;
    }
    XZ-Ymax
    {
        type            calculated;
        value           uniform 0;
    }
    YZ-Xmax
    {
        type            calculated;
        value           nonuniform List<scalar> 9(0.243918 0.231589 0.201896 0.263802 0.283222 0.275599 0.278235 0.29679 0.311233);
    }
}


// ************************************************************************* //
