/*--------------------------------*- C++ -*----------------------------------*\
| =========                 |                                                 |
| \\      /  F ield         | OpenFOAM: The Open Source CFD Toolbox           |
|  \\    /   O peration     | Version:  2312                                  |
|   \\  /    A nd           | Website:  www.openfoam.com                      |
|    \\/     M anipulation  |                                                 |
\*---------------------------------------------------------------------------*/
FoamFile
{
    version     2.0;
    format      ascii;
    arch        "LSB;label=32;scalar=64";
    class       volSymmTensorField;
    location    "350";
    object      turbulenceProperties:R;
}
// * * * * * * * * * * * * * * * * * * * * * * * * * * * * * * * * * * * * * //

dimensions      [0 2 -2 0 0 0 0];

internalField   nonuniform List<symmTensor> 
27
(
(0.0284158 -0.00338076 -0.00348982 0.0258633 -0.000419517 0.0265162)
(0.0197809 -0.00298927 -0.00106116 0.0176528 -0.000208599 0.0181287)
(0.0279581 -0.00358262 0.00380211 0.0271404 0.000265598 0.0281789)
(0.0247165 -0.00127865 -0.00486264 0.0229261 -0.000521248 0.0231074)
(0.0100642 -0.000917839 -0.00119037 0.00858848 2.10249e-05 0.00863387)
(0.0206653 0.00016726 0.00401543 0.0214264 0.000461657 0.0216882)
(0.0311783 0.00460246 -0.00412287 0.0332168 -0.000504577 0.0321734)
(0.0194406 0.00338412 -2.72116e-05 0.0209169 0.000118274 0.0201392)
(0.0236939 0.00276399 0.00261843 0.0245924 0.000341947 0.024219)
(0.0200183 -0.00255714 -0.00249194 0.0200035 -0.000343725 0.020355)
(0.0152357 -0.00247113 -0.000932166 0.0151817 -0.000135069 0.0155235)
(0.0275846 -0.00344685 0.00344329 0.0260458 0.000256409 0.0268154)
(0.00909927 -0.000379697 -0.000819936 0.00931051 -3.25751e-05 0.00930153)
(0.000634957 -5.15571e-06 -5.09886e-06 0.000638937 -8.01321e-08 0.000638684)
(0.00545331 -1.09794e-05 0.000281906 0.00544576 1.33898e-05 0.00544992)
(0.00765138 0.000267401 -0.000257352 0.00767798 -1.89497e-05 0.00764255)
(0.00984201 0.000858515 9.91543e-06 0.0100494 9.99468e-06 0.00994134)
(0.0280654 0.0035665 0.00344215 0.0290487 0.000337301 0.0287591)
(0.000250059 -4.61423e-07 -4.44309e-07 0.000250023 -1.38181e-08 0.000250029)
(0.000793236 -8.3547e-06 1.02932e-06 0.000790592 2.22263e-07 0.000790267)
(0.00326859 -7.68382e-05 6.87578e-05 0.00324314 4.16033e-06 0.00324029)
(0.00122804 -9.44451e-07 -1.80446e-05 0.00122468 1.16901e-06 0.00122309)
(0.0126097 -0.00259926 -0.000788266 0.0103334 -0.000717239 0.00957842)
(0.103846 -0.0102462 0.0416425 0.0996227 -0.00314575 0.0967727)
(0.175894 0.0483632 -0.0546559 0.162413 0.00239568 0.166226)
(0.210175 0.0929458 -0.00952741 0.206308 -0.00183389 0.212341)
(0.50635 0.159675 0.169491 0.518875 0.00017729 0.532183)
)
;

boundaryField
{
    aggregate
    {
        type            calculated;
        value           nonuniform List<symmTensor> 
24
(
(0.223001 -1.20561 1.05552 -0.269525 0.126277 0.0465238)
(1.93599 0.143102 -0.0295422 -0.971771 -0.00485068 -0.964221)
(-0.0202708 1.38354 0.670358 0.184353 0.0983935 -0.164082)
(0.0896544 0.507487 -1.42686 0.0823015 -0.14016 -0.171956)
(1.86248 0.122248 0.0557492 -0.934132 -0.00253412 -0.928351)
(-0.00543215 1.25252 0.800405 0.111991 0.159749 -0.106559)
(0.138165 -0.982346 1.27187 -0.174615 0.146281 0.0364497)
(2.02971 0.157767 -0.047704 -1.01562 -0.00438587 -1.01409)
(0.173565 -1.22371 -1.03776 -0.226066 -0.108632 0.0525018)
(0.0671052 0.635027 -1.39274 0.0810685 -0.125841 -0.148174)
(1.89467 0.141136 0.0364346 -0.947584 0.000231603 -0.947084)
(0.18104 -1.25769 -0.778704 -0.199167 -0.116661 0.0181268)
(0.0168721 -0.740834 0.620771 -0.13773 0.0790528 0.120858)
(-1.13098 -0.15679 -0.0566955 0.563757 -0.00339188 0.567226)
(-0.118322 0.822684 0.401564 0.172676 0.0937844 -0.0543538)
(-0.0160236 0.346484 -1.03816 0.0917169 -0.0843855 -0.0756933)
(-1.34734 -0.13239 -0.0555851 0.671698 -0.00155715 0.675638)
(-0.10227 0.922825 0.587824 0.118647 0.0971492 -0.0163766)
(-0.00111246 -0.820996 0.98531 -0.0344801 0.0799995 0.0355926)
(-1.60524 -0.0975723 -0.0191079 0.802802 -0.00132674 0.802436)
(-0.0134689 -0.981654 -0.801715 -0.063234 -0.041386 0.0767029)
(-0.0824019 0.502944 -1.23183 0.0786002 -0.0500889 0.00380172)
(-1.64737 -0.0718645 -0.0296709 0.824025 -0.00021467 0.823348)
(-0.0158057 -1.09485 -0.673344 -0.0278186 -0.0385885 0.0436244)
)
;
    }
    XY-Zmin
    {
        type            calculated;
        value           nonuniform List<symmTensor> 9((0.218598 -0.504735 -1.37103 -0.162477 -0.173214 -0.0561208) (0.112629 -0.137501 -1.42643 -0.079909 -0.158869 -0.0327198) (-0.13423 0.605257 -1.07964 0.133854 -0.127886 0.000375925) (-0.00222714 -0.329897 -0.808007 -0.00413228 -0.128009 0.00635942) (-0.0812486 -0.198644 -1.13657 0.0292689 -0.068086 0.0519798) (-0.0160705 0.688897 -1.3384 0.0524474 -0.0801453 -0.0363769) (0.0163468 -0.313071 -0.652656 -0.00806006 -0.0277767 -0.00828672) (0.0554488 -0.0187269 -0.691676 -0.0110887 0.049574 -0.0443601) (0.0787283 0.500341 -1.0419 -0.0607452 0.0641473 -0.0179832));
    }
    YZ-Xmin
    {
        type            calculated;
        value           nonuniform List<symmTensor> 9((0.0177451 -0.0026149 -0.00253642 0.0193554 -0.000304997 0.0198301) (0.0133015 -0.00245191 -0.00102744 0.0146969 -0.000162262 0.0150671) (0.0170347 -0.00247905 0.00253757 0.0165207 0.000189724 0.0172625) (0.0136521 -0.000835004 -0.00250814 0.0160622 -0.000269795 0.0161561) (0.0080377 -0.000798226 -0.000997831 0.00990986 1.47138e-05 0.00994163) (0.0124621 0.000278974 0.0026593 0.0130769 0.000320285 0.0132586) (0.0191304 0.00304906 -0.00275255 0.0204857 -0.000337682 0.0197874) (0.0137436 0.00296456 -2.68791e-05 0.0151639 0.000104392 0.0144774) (0.0187629 0.00296884 0.00271926 0.0197931 0.000355329 0.0194051));
    }
    XZ-Ymin
    {
        type            calculated;
        value           nonuniform List<symmTensor> 9((0.293384 -1.34515 -0.516187 -0.305799 -0.0708799 0.0124156) (0.261306 -1.28005 -0.166587 -0.263241 -0.0751255 0.0019348) (0.0674047 -0.935844 0.504085 -0.164086 0.0087217 0.0966813) (0.0458193 -0.801071 -0.318515 -0.134678 -0.0709841 0.0888587) (0.0349028 -0.944549 -0.139891 -0.112983 -0.0512834 0.0780805) (0.146406 -0.871056 0.468523 -0.188149 0.0316288 0.0417429) (0.0386217 -0.639911 -0.301459 -0.0569686 -0.00635293 0.0183469) (0.0770741 -0.503168 0.0339612 -0.0561931 0.0205406 -0.020881) (0.087793 -0.494786 0.261705 -0.0678559 0.0273341 -0.0199371));
    }
    XY-Zmax
    {
        type            calculated;
        value           nonuniform List<symmTensor> 9((0.0103656 -0.474986 0.934151 -0.0980499 0.0807044 0.0876842) (-0.096637 0.022556 1.03538 0.00599687 0.0817589 0.0906401) (-0.0976514 0.560285 1.05972 0.0844819 0.106131 0.0131695) (0.103043 -0.469006 0.902607 -0.10635 0.0870548 0.00330683) (-0.0113612 -0.0236221 1.21467 -0.0276182 0.0601028 0.0389795) (-0.103335 0.6315 1.20973 0.0707766 0.0920954 0.0325588) (0.0721956 -0.292461 0.512876 -0.0246932 0.037086 -0.0475024) (0.0379891 -0.111696 0.944971 -0.00804861 -0.0364186 -0.0299405) (-0.0659733 0.670267 1.44821 -0.0133963 0.00951392 0.0793696));
    }
    XZ-Ymax
    {
        type            calculated;
        value           nonuniform List<symmTensor> 9((-0.172666 1.10037 -0.542188 0.214461 -0.0651376 -0.0417948) (-0.171578 1.10597 -0.00474879 0.221253 0.0150994 -0.0496748) (-0.131089 1.09352 0.530777 0.155734 0.0615598 -0.0246447) (-0.0407679 1.38781 -0.663009 0.104284 -0.0412242 -0.0635158) (-0.123621 1.32616 0.00770336 0.170072 0.0189238 -0.0464504) (-0.127854 1.2422 0.609482 0.13287 0.060285 -0.00501549) (0.100573 1.07289 -0.565442 -0.101122 0.0337429 0.000548809) (0.00921021 1.41895 -0.0649078 -0.0331739 0.0249344 0.0239637) (-0.0582734 1.47481 0.711471 0.00810968 0.0300877 0.0501637));
    }
    YZ-Xmax
    {
        type            calculated;
        value           nonuniform List<symmTensor> 9((0.000261839 -4.92798e-07 -4.56848e-07 0.000261856 -1.38181e-08 0.000261862) (0.000802954 -8.81322e-06 6.11126e-07 0.00080347 2.22263e-07 0.000803145) (0.00324324 -7.97948e-05 6.68917e-05 0.00324155 4.16033e-06 0.0032387) (0.00120122 -2.43378e-06 -1.79581e-05 0.00120339 1.16901e-06 0.0012018) (0.0109613 -0.00340221 -0.00101328 0.0116889 -0.000717239 0.0109339) (0.0982723 -0.0120235 0.0407687 0.100309 -0.00314575 0.0974595) (0.165521 0.0451121 -0.054513 0.15934 0.00239568 0.163153) (0.200922 0.0875947 -0.00869682 0.192675 -0.00183389 0.198708) (0.511146 0.154622 0.170856 0.507471 0.00017729 0.520778));
    }
}


// ************************************************************************* //
