/*--------------------------------*- C++ -*----------------------------------*\
| =========                 |                                                 |
| \\      /  F ield         | OpenFOAM: The Open Source CFD Toolbox           |
|  \\    /   O peration     | Version:  2312                                  |
|   \\  /    A nd           | Website:  www.openfoam.com                      |
|    \\/     M anipulation  |                                                 |
\*---------------------------------------------------------------------------*/
FoamFile
{
    version     2.0;
    format      ascii;
    arch        "LSB;label=32;scalar=64";
    class       volSymmTensorField;
    location    "350";
    object      turbulenceProperties:devReff;
}
// * * * * * * * * * * * * * * * * * * * * * * * * * * * * * * * * * * * * * //

dimensions      [0 2 -2 0 0 0 0];

internalField   nonuniform List<symmTensor> 
27
(
(0.00256292 -0.00583864 -0.006027 -0.00184526 -0.000724514 -0.000717661)
(0.00224028 -0.00531453 -0.0018866 -0.00154318 -0.000370861 -0.000697102)
(0.000341101 -0.00614179 0.00651806 -0.00106076 0.000455322 0.000719661)
(0.00171973 -0.00194048 -0.00737951 -0.000997461 -0.000791043 -0.000722265)
(0.00164662 -0.00156017 -0.00202342 -0.000861893 3.57388e-05 -0.000784727)
(-0.00100722 0.0002833 0.00680122 0.00028185 0.000781942 0.000725367)
(-0.00168799 0.0076826 -0.00688205 0.00171482 -0.000842259 -2.68252e-05)
(-0.00136478 0.00637103 -5.12292e-05 0.00141448 0.000222666 -4.97002e-05)
(-0.000967644 0.00563615 0.00533932 0.000864515 0.000697276 0.000103129)
(-0.000192594 -0.00458903 -0.00447202 -0.000219095 -0.000616847 0.000411689)
(-0.000144728 -0.00459179 -0.00173213 -0.000245171 -0.000250981 0.000389899)
(0.00135216 -0.00605788 0.00605164 -0.00135244 0.000450643 2.88532e-07)
(-0.00052378 -0.00144282 -0.0031157 0.00027895 -0.000123783 0.00024483)
(-0.000470107 -0.000943383 -0.000932981 0.000258183 -1.46624e-05 0.000211924)
(4.17826e-05 -0.000125647 0.0032261 -4.46894e-05 0.000153231 2.90679e-06)
(-7.65304e-05 0.00345564 -0.00332578 0.000267169 -0.000244889 -0.000190638)
(-0.000476429 0.0040011 4.62108e-05 0.000489925 4.65801e-05 -1.34964e-05)
(-0.00103676 0.00661437 0.00638375 0.0007869 0.000625551 0.00024986)
(9.49555e-05 -0.00199598 -0.00192194 -6.06496e-05 -5.97729e-05 -3.43059e-05)
(0.000441377 -0.0019709 0.000242819 -0.000182384 5.24324e-05 -0.000258992)
(0.000508548 -0.0021806 0.00195128 -0.000213858 0.000118066 -0.000294691)
(0.000345496 -0.00011792 -0.00225297 -7.34792e-05 0.000145958 -0.000272017)
(0.00211281 -0.00310404 -0.000941347 -0.00060562 -0.000856527 -0.00150719)
(0.00398898 -0.0108544 0.0441146 -0.000484909 -0.00333249 -0.00350407)
(0.00813056 0.0509572 -0.0575874 -0.00607412 0.00252418 -0.00205644)
(0.000585065 0.095831 -0.00982315 -0.00340292 -0.00189082 0.00281786)
(-0.013025 0.162661 0.172661 -0.000265586 0.000180606 0.0132906)
)
;

boundaryField
{
    aggregate
    {
        type            calculated;
        value           nonuniform List<symmTensor> 
24
(
(0.224468 -1.21355 1.06246 -0.271298 0.127108 0.0468299)
(2.05772 0.1521 -0.0313997 -1.03287 -0.00515568 -1.02485)
(-0.0204473 1.39558 0.676194 0.185958 0.0992502 -0.165511)
(0.0904485 0.511982 -1.4395 0.0830305 -0.141402 -0.173479)
(1.98174 0.130076 0.0593189 -0.993945 -0.00269638 -0.987794)
(-0.00546851 1.2609 0.805762 0.112741 0.160818 -0.107272)
(0.139343 -0.990722 1.28272 -0.176104 0.147528 0.0367605)
(2.15457 0.167472 -0.0506385 -1.07809 -0.00465566 -1.07648)
(0.174683 -1.2316 -1.04444 -0.227523 -0.109332 0.0528402)
(0.0675511 0.639246 -1.40199 0.0816071 -0.126677 -0.149158)
(2.01504 0.150103 0.0387493 -1.00778 0.000246317 -1.00725)
(0.182632 -1.26874 -0.785551 -0.200918 -0.117686 0.0182862)
(0.0170121 -0.746985 0.625925 -0.138873 0.0797091 0.121861)
(-1.22205 -0.169415 -0.0612608 0.609152 -0.003665 0.6129)
(-0.119623 0.831728 0.405978 0.174574 0.0948153 -0.0549513)
(-0.0161873 0.350022 -1.04877 0.0926535 -0.0852472 -0.0764662)
(-1.44763 -0.142245 -0.0597228 0.721699 -0.00167306 0.725932)
(-0.103059 0.929943 0.592359 0.119562 0.0978986 -0.016503)
(-0.001123 -0.828774 0.994645 -0.0348067 0.0807574 0.0359297)
(-1.71559 -0.10428 -0.0204215 0.857991 -0.00141795 0.857601)
(-0.0135653 -0.988681 -0.807454 -0.0636867 -0.0416822 0.077252)
(-0.0829852 0.506504 -1.24054 0.0791565 -0.0504434 0.00382863)
(-1.75928 -0.0767461 -0.0316864 0.88 -0.000229253 0.879277)
(-0.0159538 -1.1051 -0.679651 -0.0280792 -0.03895 0.044033)
)
;
    }
    XY-Zmin
    {
        type            calculated;
        value           nonuniform List<symmTensor> 9((0.219662 -0.507193 -1.37771 -0.163268 -0.174057 -0.0563941) (0.113171 -0.138162 -1.4333 -0.0802936 -0.159634 -0.0328773) (-0.134913 0.608337 -1.08513 0.134535 -0.128536 0.000377838) (-0.00224086 -0.331929 -0.812984 -0.00415773 -0.128798 0.00639859) (-0.0816835 -0.199707 -1.14265 0.0294255 -0.0684504 0.0522579) (-0.0161449 0.692085 -1.34459 0.0526902 -0.0805163 -0.0365452) (0.016451 -0.315067 -0.656816 -0.00811144 -0.0279537 -0.00833954) (0.0557951 -0.0188438 -0.695996 -0.0111579 0.0498837 -0.0446372) (0.0791365 0.502935 -1.0473 -0.0610601 0.0644798 -0.0180764));
    }
    YZ-Xmin
    {
        type            calculated;
        value           nonuniform List<symmTensor> 9((-0.00246354 -0.0052298 -0.00507283 0.000757089 -0.000609994 0.00170645) (-0.00210737 -0.00490382 -0.00205488 0.000683504 -0.000324525 0.00142387) (0.000190787 -0.0049581 0.00507513 -0.000837261 0.000379448 0.000646475) (-0.0032761 -0.00167001 -0.00501629 0.00154419 -0.000539589 0.00173191) (-0.0025174 -0.00159645 -0.00199566 0.00122693 2.94277e-05 0.00129047) (-0.000940859 0.000557948 0.00531859 0.000288764 0.00064057 0.000652095) (-0.00134156 0.00609813 -0.00550509 0.00136905 -0.000675364 -2.74857e-05) (-0.00143613 0.00592912 -5.37581e-05 0.00140451 0.000208784 3.16159e-05) (-0.00111495 0.00593767 0.00543853 0.000945476 0.000710658 0.000169478));
    }
    XZ-Ymin
    {
        type            calculated;
        value           nonuniform List<symmTensor> 9((0.294826 -1.35176 -0.518725 -0.307302 -0.0712283 0.0124767) (0.262601 -1.28639 -0.167413 -0.264546 -0.0754977 0.00194439) (0.0677679 -0.940887 0.506801 -0.16497 0.00876869 0.0972022) (0.0461041 -0.806051 -0.320495 -0.135515 -0.0714254 0.0894111) (0.0351024 -0.94995 -0.140691 -0.113629 -0.0515766 0.078527) (0.147221 -0.875905 0.471131 -0.189196 0.0318049 0.0419753) (0.0388679 -0.64399 -0.303381 -0.0573318 -0.00639342 0.0184639) (0.0776228 -0.50675 0.034203 -0.0565932 0.0206868 -0.0210296) (0.0884245 -0.498346 0.263588 -0.068344 0.0275307 -0.0200805));
    }
    XY-Zmax
    {
        type            calculated;
        value           nonuniform List<symmTensor> 9((0.0104215 -0.477545 0.939184 -0.0985781 0.0811393 0.0881567) (-0.0971341 0.022672 1.04071 0.00602772 0.0821795 0.0911064) (-0.098152 0.563157 1.06515 0.084915 0.106675 0.013237) (0.103616 -0.471617 0.907632 -0.106942 0.0875395 0.00332524) (-0.0114164 -0.0237367 1.22056 -0.0277523 0.0603946 0.0391687) (-0.103834 0.634548 1.21557 0.0711182 0.0925399 0.032716) (0.0727149 -0.294564 0.516565 -0.0248708 0.0373528 -0.0478441) (0.038196 -0.112304 0.950117 -0.00809244 -0.0366169 -0.0301036) (-0.0662672 0.673253 1.45466 -0.0134559 0.00955631 0.0797231));
    }
    XZ-Ymax
    {
        type            calculated;
        value           nonuniform List<symmTensor> 9((-0.173545 1.10597 -0.544947 0.215553 -0.0654691 -0.0420075) (-0.172446 1.11156 -0.00477281 0.222372 0.0151757 -0.049926) (-0.131761 1.09912 0.533498 0.156532 0.0618754 -0.024771) (-0.0409566 1.39423 -0.666077 0.104766 -0.041415 -0.0638097) (-0.124204 1.33241 0.00773965 0.170873 0.0190129 -0.0466692) (-0.128471 1.2482 0.612423 0.133511 0.060576 -0.00503969) (0.101095 1.07846 -0.568374 -0.101646 0.0339178 0.000551655) (0.00925218 1.42542 -0.0652035 -0.033325 0.025048 0.0240729) (-0.058533 1.48138 0.714641 0.00814581 0.0302217 0.0503872));
    }
    YZ-Xmax
    {
        type            calculated;
        value           nonuniform List<symmTensor> 9((-5.58728e-05 -0.00213169 -0.00197618 1.47646e-05 -5.97729e-05 4.11082e-05) (-5.55336e-05 -0.00207906 0.000144166 6.60708e-05 5.24324e-05 -1.05372e-05) (5.89826e-05 -0.0022645 0.00189832 1.09253e-05 0.000118066 -6.99079e-05) (-0.000114565 -0.000303871 -0.00224217 0.000156551 0.000145958 -4.19866e-05) (-0.000278753 -0.00406291 -0.00121006 0.00059016 -0.000856527 -0.000311407) (-0.000432343 -0.0127373 0.0431888 0.00172575 -0.00333249 -0.00129341) (0.00300256 0.0475318 -0.0574369 -0.00351012 0.00252418 0.000507562) (0.0035956 0.0903138 -0.00896679 -0.00490819 -0.00189082 0.00131259) (-0.00202272 0.157513 0.174051 -0.00576675 0.000180606 0.00778947));
    }
}


// ************************************************************************* //
