/*--------------------------------*- C++ -*----------------------------------*\
| =========                 |                                                 |
| \\      /  F ield         | OpenFOAM: The Open Source CFD Toolbox           |
|  \\    /   O peration     | Version:  2312                                  |
|   \\  /    A nd           | Website:  www.openfoam.com                      |
|    \\/     M anipulation  |                                                 |
\*---------------------------------------------------------------------------*/
FoamFile
{
    version     2.0;
    format      ascii;
    arch        "LSB;label=32;scalar=64";
    class       volScalarField;
    location    "350";
    object      turbulenceProperties:nuEff;
}
// * * * * * * * * * * * * * * * * * * * * * * * * * * * * * * * * * * * * * //

dimensions      [0 2 -1 0 0 0 0];

internalField   nonuniform List<scalar> 
27
(
2.37548e-05
2.28556e-05
2.39992e-05
2.93202e-05
2.42892e-05
2.4414e-05
2.49424e-05
2.13298e-05
1.96234e-05
2.2585e-05
2.16526e-05
2.32011e-05
1.35715e-05
1.0055e-05
1.09575e-05
1.08387e-05
1.27319e-05
2.17017e-05
1.00023e-05
1.00426e-05
1.03652e-05
1.00807e-05
6.14934e-05
0.000178454
0.00019644
0.000332145
0.000544734
)
;

boundaryField
{
    aggregate
    {
        type            calculated;
        value           nonuniform List<scalar> 
24
(
0.00152989
0.00016904
0.00115859
0.00113896
0.000166174
0.00150397
0.00118274
0.000172563
0.00156175
0.00151509
0.000167405
0.0011474
0.00121447
0.000134189
0.000919719
0.00098929
0.000144338
0.00130634
0.00106554
0.000155463
0.00140699
0.00142285
0.000157213
0.00107754
)
;
    }
    XY-Zmin
    {
        type            calculated;
        value           nonuniform List<scalar> 9(0.00206354 0.00208761 0.00197503 0.0016336 0.00187849 0.00217075 0.00157887 0.00161092 0.00193882);
    }
    YZ-Xmin
    {
        type            calculated;
        value           uniform 2e-05;
    }
    XZ-Ymin
    {
        type            calculated;
        value           nonuniform List<scalar> 9(0.0020445 0.00202816 0.00186602 0.0016186 0.00175872 0.00180625 0.00157887 0.00141457 0.00140018);
    }
    XY-Zmax
    {
        type            calculated;
        value           nonuniform List<scalar> 9(0.00186602 0.00195381 0.00196074 0.00180625 0.00207004 0.00208194 0.00140018 0.00184635 0.00225465);
    }
    XZ-Ymax
    {
        type            calculated;
        value           nonuniform List<scalar> 9(0.00197503 0.00198721 0.00196074 0.00217075 0.00213241 0.00208194 0.00193882 0.00220469 0.00225465);
    }
    YZ-Xmax
    {
        type            calculated;
        value           nonuniform List<scalar> 9(1.00023e-05 1.00426e-05 1.03652e-05 1.00807e-05 6.14934e-05 0.000178454 0.00019644 0.000332145 0.000544734);
    }
}


// ************************************************************************* //
