/*--------------------------------*- C++ -*----------------------------------*\
| =========                 |                                                 |
| \\      /  F ield         | OpenFOAM: The Open Source CFD Toolbox           |
|  \\    /   O peration     | Version:  2312                                  |
|   \\  /    A nd           | Website:  www.openfoam.com                      |
|    \\/     M anipulation  |                                                 |
\*---------------------------------------------------------------------------*/
FoamFile
{
    version     2.0;
    format      ascii;
    arch        "LSB;label=32;scalar=64";
    class       volScalarField;
    location    "350";
    object      turbulenceProperties:I;
}
// * * * * * * * * * * * * * * * * * * * * * * * * * * * * * * * * * * * * * //

dimensions      [0 0 0 0 0 0 0];

internalField   nonuniform List<scalar> 
27
(
0.00526034
0.00445392
0.00645641
0.00480054
0.00309332
0.005346
0.00649318
0.00510147
0.0056757
0.00602591
0.00480847
0.00659957
0.00341123
0.000884033
0.0025249
0.00282688
0.00329118
0.00574691
0.000749633
0.00152326
0.00312575
0.00161964
0.00452697
0.0124167
0.015176
0.0145171
0.02224
)
;

boundaryField
{
    aggregate
    {
        type            calculated;
        value           uniform 0;
    }
    XY-Zmin
    {
        type            calculated;
        value           uniform 0;
    }
    YZ-Xmin
    {
        type            calculated;
        value           nonuniform List<scalar> 9(0.00529253 0.00460374 0.00500542 0.00475 0.0037046 0.0043724 0.00540987 0.0046231 0.00534406);
    }
    XZ-Ymin
    {
        type            calculated;
        value           uniform 0;
    }
    XY-Zmax
    {
        type            calculated;
        value           uniform 0;
    }
    XZ-Ymax
    {
        type            calculated;
        value           uniform 0;
    }
    YZ-Xmax
    {
        type            calculated;
        value           nonuniform List<scalar> 9(0.000767064 0.00153317 0.00311694 0.00160258 0.00459702 0.0123291 0.0149307 0.0140986 0.0221186);
    }
}


// ************************************************************************* //
