/*--------------------------------*- C++ -*----------------------------------*\
| =========                 |                                                 |
| \\      /  F ield         | OpenFOAM: The Open Source CFD Toolbox           |
|  \\    /   O peration     | Version:  2312                                  |
|   \\  /    A nd           | Website:  www.openfoam.com                      |
|    \\/     M anipulation  |                                                 |
\*---------------------------------------------------------------------------*/
FoamFile
{
    version     2.0;
    format      ascii;
    arch        "LSB;label=32;scalar=64";
    class       volVectorField;
    location    "350";
    object      U;
}
// * * * * * * * * * * * * * * * * * * * * * * * * * * * * * * * * * * * * * //

dimensions      [0 1 -1 0 0 0 0];

internalField   nonuniform List<vector> 
27
(
(30.949 3.92272 0.215012)
(30.3192 3.50048 1.45596)
(25.6165 2.81002 1.34955)
(31.7883 3.58295 -0.13503)
(30.632 3.33738 1.04911)
(27.1886 1.79891 1.194)
(27.4432 3.21787 -0.0051728)
(27.6283 3.39111 0.174501)
(27.2861 2.38853 0.132946)
(23.2523 3.57905 0.87667)
(25.5799 2.60066 1.10389)
(24.6498 2.80033 0.467845)
(28.1121 1.84437 -0.335907)
(28.5313 1.26656 0.346902)
(29.1839 1.43304 1.04052)
(30.9027 1.79601 0.117194)
(30.1935 2.4885 0.464578)
(29.3779 1.87109 0.364897)
(21.0712 0.959806 -0.170891)
(18.4431 0.533628 -0.790495)
(18.1927 1.19697 -0.550461)
(21.5481 -1.65782 -0.127362)
(22.933 -1.67603 -0.490877)
(25.4702 -0.635867 0.00294113)
(26.9722 -1.62791 0.26718)
(31.5121 -0.802188 0.973305)
(32.3853 -0.00693302 0.87249)
)
;

boundaryField
{
    aggregate
    {
        type            noSlip;
    }
    XY-Zmin
    {
        type            noSlip;
    }
    YZ-Xmin
    {
        type            freestreamVelocity;
        freestreamValue uniform (25.75 3.62 0);
        value           nonuniform List<vector> 9((25.7753 3.62147 0.00104567) (25.7722 3.61942 0.00707456) (25.7494 3.61606 0.00655698) (25.7793 3.61982 -0.000655856) (25.7737 3.61863 0.00509478) (25.757 3.61118 0.00578226) (25.7582 3.61805 -2.51425e-05) (25.7591 3.61889 0.000848562) (25.7575 3.61403 0.000644896));
    }
    XZ-Ymin
    {
        type            noSlip;
    }
    XY-Zmax
    {
        type            noSlip;
    }
    XZ-Ymax
    {
        type            noSlip;
    }
    YZ-Xmax
    {
        type            freestreamVelocity;
        freestreamValue uniform (25.75 3.62 0);
        value           nonuniform List<vector> 9((21.0732 0.960971 -0.170816) (18.4602 0.54086 -0.788643) (18.217 1.20479 -0.548686) (21.5735 -1.62587 -0.126591) (22.9523 -1.63975 -0.487513) (25.4716 -0.615252 0.00292688) (26.9647 -1.59612 0.265561) (31.4915 -0.786447 0.969841) (32.3742 -0.000850209 0.871026));
    }
}


// ************************************************************************* //
