/*--------------------------------*- C++ -*----------------------------------*\
| =========                 |                                                 |
| \\      /  F ield         | OpenFOAM: The Open Source CFD Toolbox           |
|  \\    /   O peration     | Version:  2312                                  |
|   \\  /    A nd           | Website:  www.openfoam.com                      |
|    \\/     M anipulation  |                                                 |
\*---------------------------------------------------------------------------*/
FoamFile
{
    version     2.0;
    format      ascii;
    arch        "LSB;label=32;scalar=64";
    class       volScalarField;
    location    "100";
    object      magR;
}
// * * * * * * * * * * * * * * * * * * * * * * * * * * * * * * * * * * * * * //

dimensions      [0 2 -2 0 0 0 0];

internalField   nonuniform List<scalar> 
27
(
0.0552833
0.0373734
0.0426012
0.0407082
0.0155592
0.0279604
0.0415077
0.0224271
0.0411107
0.00169461
0.00203565
0.00502711
0.00407646
0.00272324
0.00711011
0.0113195
0.00857803
0.0168498
0.0376506
0.0815348
0.158324
0.144986
0.0517976
0.217421
0.345803
0.273429
0.50033
)
;

boundaryField
{
    aggregate
    {
        type            calculated;
        value           nonuniform List<scalar> 
24
(
2.30038
2.38012
2.19268
2.16117
2.28899
2.11989
2.29328
2.49682
2.29271
2.17963
2.32966
2.11576
1.38378
1.40514
1.31931
1.55705
1.66263
1.56142
1.81796
1.97104
1.7962
1.88649
2.02064
1.81939
)
;
    }
    XY-Zmin
    {
        type            calculated;
        value           nonuniform List<scalar> 9(2.09914 2.04401 1.76994 1.24754 1.63767 2.13269 1.02465 0.983712 1.64029);
    }
    YZ-Xmin
    {
        type            calculated;
        value           nonuniform List<scalar> 9(0.0333089 0.0251821 0.0297715 0.026824 0.0162767 0.0227292 0.0348022 0.0254177 0.0339574);
    }
    XZ-Ymin
    {
        type            calculated;
        value           nonuniform List<scalar> 9(2.08365 1.86588 1.51685 1.23477 1.35975 1.42025 1.00294 0.720449 0.800477);
    }
    XY-Zmax
    {
        type            calculated;
        value           nonuniform List<scalar> 9(1.49231 1.47516 1.70685 1.45136 1.72093 1.93841 0.841383 1.34763 2.25943);
    }
    XZ-Ymax
    {
        type            calculated;
        value           nonuniform List<scalar> 9(1.75947 1.58992 1.73342 2.17957 1.88787 1.96713 1.7218 2.00955 2.31759);
    }
    YZ-Xmax
    {
        type            calculated;
        value           nonuniform List<scalar> 9(0.0394306 0.0828633 0.157886 0.142464 0.0539975 0.214448 0.33445 0.257587 0.494565);
    }
}


// ************************************************************************* //
