/*--------------------------------*- C++ -*----------------------------------*\
| =========                 |                                                 |
| \\      /  F ield         | OpenFOAM: The Open Source CFD Toolbox           |
|  \\    /   O peration     | Version:  2312                                  |
|   \\  /    A nd           | Website:  www.openfoam.com                      |
|    \\/     M anipulation  |                                                 |
\*---------------------------------------------------------------------------*/
FoamFile
{
    version     2.0;
    format      ascii;
    arch        "LSB;label=32;scalar=64";
    class       volVectorField;
    location    "100";
    object      momentError;
}
// * * * * * * * * * * * * * * * * * * * * * * * * * * * * * * * * * * * * * //

dimensions      [0 1 -2 0 0 0 0];

internalField   nonuniform List<vector> 
27
(
(0.00419539 -0.00691331 -0.00761393)
(0.000107885 -0.00784217 -0.00256897)
(-0.00546798 -0.00354664 0.00320358)
(0.178719 0.00216911 -0.199218)
(0.0162795 -0.00407617 -0.00101539)
(1.55116 0.0513349 -1.66133)
(-1.18108 -0.828136 2.35264)
(2.39866 0.00830721 -2.49408)
(2.20282 0.2425 -0.467344)
(-0.0592841 0.0679603 0.0830745)
(-61.7401 -7.412 -3.57861)
(-0.115843 0.00731354 -0.0435951)
(-89.757 -19.904 21.7932)
(-95.0763 -3.1336 -29.4018)
(-38.4886 -1.66371 -17.6793)
(-56.7497 -7.8697 23.169)
(-156.376 -24.3852 -27.8569)
(-53.3568 -23.8107 -23.379)
(-453.192 -128.108 -39.4273)
(-1164.73 -84.1559 -97.3183)
(-898.465 -70.1262 -100.859)
(-1664.32 -192.959 84.7586)
(-1511.94 -345.286 -131.006)
(-918.344 -374.232 -233.412)
(-1060.71 -649.254 -57.9844)
(-50.5897 -809.059 -44.933)
(547.584 -544.671 38.2807)
)
;

boundaryField
{
    aggregate
    {
        type            calculated;
        value           nonuniform List<vector> 
24
(
(-86.9116 -70.5639 102.516)
(625.845 -11.023 -0.611197)
(-86.9116 17.7259 15.987)
(437.486 -271.602 578.898)
(1159.09 50.4997 21.0055)
(437.486 135.743 70.222)
(-444.15 -97.9416 84.5911)
(436.568 -50.0784 1.68983)
(-444.15 -345.189 -168.688)
(799.298 -186.352 500.971)
(1676.7 87.0772 27.3731)
(799.298 -61.6627 -58.5028)
(746.334 92.5936 66.967)
(1220.21 114.96 28.2278)
(746.334 266.995 116.005)
(-1199.6 -5.53064 -256.337)
(-1085.18 -123.115 -52.6766)
(-1199.6 -327.439 -170.646)
(-1973.42 -229.352 192.939)
(-1906.67 -143.513 44.262)
(-1973.42 -556.061 -193.917)
(-1077.16 -27.9679 -73.8723)
(-935.587 -46.748 -41.344)
(-1077.16 -626.001 -375.779)
)
;
    }
    XY-Zmin
    {
        type            calculated;
        value           nonuniform List<vector> 9((-86.9116 -11.023 119.115) (-444.15 -50.0784 -85.7899) (726.729 84.5215 11.4673) (746.334 114.96 154.745) (-1973.42 -143.513 -45.2439) (-1296.26 -79.9067 45.8613) (-249.45 -118.823 -217.199) (-539.667 -279.505 38.3504) (-447.775 -686.206 30.4522));
    }
    YZ-Xmin
    {
        type            calculated;
        value           nonuniform List<vector> 9((708.597 -0.852655 -0.608262) (794.484 -1.72579 20.9034) (-6.45229 4.45783 -7.42965) (808.041 0.518276 1.68065) (1017.56 -7.34307 27.2402) (361.038 -9.42429 4.55132) (801.077 -11.4434 2.21741) (817.619 -4.81765 1.184) (864.648 -38.9898 3.7601));
    }
    XZ-Ymin
    {
        type            calculated;
        value           nonuniform List<vector> 9((-86.9116 -41.8147 -0.611197) (437.486 -186.361 21.0055) (-141.769 -321.628 -7.46594) (746.334 244.629 28.2278) (-1199.6 -209.855 -52.6766) (-457.128 -1.78186 -8.70701) (-249.45 -481.993 -41.073) (-657.936 -296.307 -119.039) (-1000.93 -243.725 -97.7547));
    }
    XY-Zmax
    {
        type            calculated;
        value           nonuniform List<vector> 9((-141.769 -15.5537 453.321) (143.709 9.45689 449.147) (875.625 76.6926 67.7684) (-457.128 -51.9208 -434.575) (-1531.73 -75.0074 -331.733) (-878.644 -76.4027 68.8494) (-1000.93 -76.8757 -112.089) (-138.031 -393.713 -187.619) (615.977 -544.679 98.3562));
    }
    XZ-Ymax
    {
        type            calculated;
        value           nonuniform List<vector> 9((726.729 -208.328 2.21675) (587.507 -101.621 1.20197) (875.625 -455.925 3.7807) (-1296.26 -667.343 18.4591) (-710.763 -518.24 -36.3857) (-878.644 -152.69 -33.6552) (-447.775 -645.046 -51.9436) (192.544 -651.877 -37.4227) (615.977 -368.758 40.1303));
    }
    YZ-Xmax
    {
        type            calculated;
        value           nonuniform List<vector> 9((-443.378 -128.119 -39.4281) (-1851.45 -84.3544 -97.3692) (-1198.37 -70.0822 -100.849) (-2919.36 -194.627 84.7186) (-2773.59 -348.134 -131.27) (-1767.26 -374.864 -233.411) (-1597.18 -649.976 -57.9478) (-368.886 -809.18 -44.9063) (300.679 -544.683 38.2838));
    }
}


// ************************************************************************* //
