/*--------------------------------*- C++ -*----------------------------------*\
| =========                 |                                                 |
| \\      /  F ield         | OpenFOAM: The Open Source CFD Toolbox           |
|  \\    /   O peration     | Version:  2312                                  |
|   \\  /    A nd           | Website:  www.openfoam.com                      |
|    \\/     M anipulation  |                                                 |
\*---------------------------------------------------------------------------*/
FoamFile
{
    version     2.0;
    format      ascii;
    arch        "LSB;label=32;scalar=64";
    class       volScalarField;
    location    "100";
    object      nut;
}
// * * * * * * * * * * * * * * * * * * * * * * * * * * * * * * * * * * * * * //

dimensions      [0 2 -1 0 0 0 0];

internalField   nonuniform List<scalar> 
27
(
1.82491e-05
1.65938e-05
1.09882e-05
1.86837e-05
1.36764e-05
8.4997e-06
8.49785e-06
4.83757e-06
9.16164e-06
3.27539e-08
7.50718e-08
1.70483e-07
2.39213e-07
3.32563e-07
5.45267e-07
6.11848e-07
6.89912e-07
1.45144e-06
1.52082e-05
8.36438e-05
0.0001257
0.000146431
0.000180057
0.000201981
0.000210066
0.000225585
0.00027712
)
;

boundaryField
{
    aggregate
    {
        type            nutUSpaldingWallFunction;
        value           nonuniform List<scalar> 
24
(
0.00151989
0.000159041
0.00114859
0.00112896
0.000156175
0.00149398
0.00117275
0.000162564
0.00155176
0.0015051
0.000157406
0.00113741
0.00120448
0.000124191
0.000909731
0.000979298
0.000134339
0.00129635
0.00105554
0.000145464
0.00139699
0.00141286
0.000147214
0.00106755
)
;
    }
    XY-Zmin
    {
        type            nutUSpaldingWallFunction;
        value           nonuniform List<scalar> 9(0.00205355 0.00207762 0.00196505 0.00162362 0.00186849 0.00216069 0.00156887 0.00160095 0.00192889);
    }
    YZ-Xmin
    {
        type            freestream;
        freestreamValue uniform 1e-05;
        value           uniform 1e-05;
    }
    XZ-Ymin
    {
        type            nutUSpaldingWallFunction;
        value           nonuniform List<scalar> 9(0.00203451 0.00201817 0.00185603 0.00160862 0.00174873 0.00179624 0.00156887 0.00140457 0.00139015);
    }
    XY-Zmax
    {
        type            nutUSpaldingWallFunction;
        value           nonuniform List<scalar> 9(0.00185603 0.00194382 0.00195077 0.00179624 0.00206006 0.00207188 0.00139015 0.0018364 0.00224476);
    }
    XZ-Ymax
    {
        type            nutUSpaldingWallFunction;
        value           nonuniform List<scalar> 9(0.00196505 0.00197724 0.00195077 0.00216069 0.00212236 0.00207188 0.00192889 0.00219472 0.00224476);
    }
    YZ-Xmax
    {
        type            freestream;
        freestreamValue uniform 1e-05;
        value           nonuniform List<scalar> 9(1.52082e-05 8.36438e-05 0.0001257 0.000146431 0.000180057 0.000201981 0.000210066 0.000225585 0.00027712);
    }
}


// ************************************************************************* //
