/*--------------------------------*- C++ -*----------------------------------*\
| =========                 |                                                 |
| \\      /  F ield         | OpenFOAM: The Open Source CFD Toolbox           |
|  \\    /   O peration     | Version:  2312                                  |
|   \\  /    A nd           | Website:  www.openfoam.com                      |
|    \\/     M anipulation  |                                                 |
\*---------------------------------------------------------------------------*/
FoamFile
{
    version     2.0;
    format      ascii;
    arch        "LSB;label=32;scalar=64";
    class       surfaceScalarField;
    location    "100";
    object      phi;
}
// * * * * * * * * * * * * * * * * * * * * * * * * * * * * * * * * * * * * * //

dimensions      [0 3 -1 0 0 0 0];

oriented        oriented;

internalField   nonuniform List<scalar> 
54
(
0.00453386
0.0232243
0.0284162
-0.00213585
0.0208322
0.0207953
0.021883
0.0273491
0.000302356
0.0320074
0.00301289
0.0114986
0.222101
0.0139862
0.230656
-0.00440839
0.253346
0.248529
0.027173
0.000543767
0.246173
0.0157284
0.00197187
0.293895
0.023244
0.310761
0.00446283
0.00239057
0.307675
0.00998485
0.00607631
0.303726
0.0143161
0.209029
-0.01007
0.194401
-0.00430046
0.207154
0.212065
-0.0151434
-0.00502797
0.22037
-0.0154748
-0.000472397
0.253629
-0.00466581
0.272723
-0.00965037
0.00753182
0.295613
-0.00442756
0.00962458
0.296025
0.00351546
)
;

boundaryField
{
    aggregate
    {
        type            calculated;
        value           uniform 0;
    }
    XY-Zmin
    {
        type            calculated;
        value           uniform 0;
    }
    YZ-Xmin
    {
        type            calculated;
        value           nonuniform List<scalar> 9(-0.257509 -0.257553 -0.257539 -0.257556 -0.257448 -0.257487 -0.257191 -0.257201 -0.257205);
    }
    XZ-Ymin
    {
        type            calculated;
        value           uniform 0;
    }
    XY-Zmax
    {
        type            calculated;
        value           uniform 0;
    }
    XZ-Ymax
    {
        type            calculated;
        value           uniform 0;
    }
    YZ-Xmax
    {
        type            calculated;
        value           nonuniform List<scalar> 9(0.243912 0.231585 0.201887 0.263792 0.283214 0.27561 0.278264 0.296808 0.311277);
    }
}


// ************************************************************************* //
