/*--------------------------------*- C++ -*----------------------------------*\
| =========                 |                                                 |
| \\      /  F ield         | OpenFOAM: The Open Source CFD Toolbox           |
|  \\    /   O peration     | Version:  2312                                  |
|   \\  /    A nd           | Website:  www.openfoam.com                      |
|    \\/     M anipulation  |                                                 |
\*---------------------------------------------------------------------------*/
FoamFile
{
    version     2.0;
    format      ascii;
    arch        "LSB;label=32;scalar=64";
    class       volSymmTensorField;
    location    "100";
    object      turbulenceProperties:devReff;
}
// * * * * * * * * * * * * * * * * * * * * * * * * * * * * * * * * * * * * * //

dimensions      [0 2 -2 0 0 0 0];

internalField   nonuniform List<symmTensor> 
27
(
(0.00304771 -0.00694334 -0.00716731 -0.00219431 -0.00086154 -0.000853394)
(0.00260664 -0.00618384 -0.00219516 -0.00179551 -0.000431501 -0.000811135)
(0.000298298 -0.00537131 0.00570037 -0.000927668 0.000398159 0.00062937)
(0.00168235 -0.00189844 -0.00721942 -0.000975802 -0.000773875 -0.000706547)
(0.00160501 -0.00152092 -0.0019724 -0.000840102 3.48301e-05 -0.000764911)
(-0.000763284 0.000214611 0.00515371 0.000213608 0.000592546 0.000549676)
(-0.00125178 0.00569765 -0.00510399 0.00127171 -0.000624633 -1.99336e-05)
(-0.000949349 0.00443191 -3.5637e-05 0.000983905 0.000154902 -3.45554e-05)
(-0.000944747 0.00550351 0.00521371 0.000844111 0.000680822 0.000100636)
(-8.55337e-05 -0.00203859 -0.00198663 -9.73618e-05 -0.000274072 0.000182895)
(-6.73351e-05 -0.00213666 -0.000805951 -0.000114162 -0.000116806 0.000181497)
(0.000592843 -0.00265563 0.00265286 -0.000592926 0.000197639 8.27535e-08)
(-0.000395178 -0.00108848 -0.00235074 0.000210492 -9.34468e-05 0.000184687)
(-0.000483084 -0.000969371 -0.000958784 0.000265267 -1.50847e-05 0.000217817)
(4.01917e-05 -0.000120866 0.00310467 -4.30074e-05 0.000147439 2.81579e-06)
(-7.50052e-05 0.00338317 -0.003256 0.00026164 -0.000239722 -0.000186635)
(-0.000400015 0.00335922 3.88115e-05 0.00041142 3.90518e-05 -1.14052e-05)
(-0.000547265 0.00349 0.00336822 0.000415356 0.00033018 0.000131909)
(0.000239442 -0.0050304 -0.00484382 -0.00015283 -0.000150972 -8.66116e-05)
(0.00411561 -0.018378 0.00226444 -0.0017016 0.000488255 -0.00241401)
(0.00665926 -0.0285487 0.0255455 -0.00280094 0.00154668 -0.00385832)
(0.00536219 -0.00183027 -0.0349613 -0.00114084 0.00226706 -0.00422135)
(0.00653255 -0.00959335 -0.00291025 -0.00187396 -0.00264764 -0.00465859)
(0.0047374 -0.012896 0.0524012 -0.000579514 -0.00396336 -0.00415788)
(0.0091033 0.0570856 -0.0645137 -0.00680197 0.00282199 -0.00230132)
(0.000414592 0.0679684 -0.00696822 -0.00240488 -0.00134219 0.00199029)
(-0.0068775 0.0857369 0.0910063 -0.000134416 0.000110918 0.00701192)
)
;

boundaryField
{
    aggregate
    {
        type            calculated;
        value           nonuniform List<symmTensor> 
24
(
(0.224465 -1.21356 1.06247 -0.27129 0.127108 0.0468258)
(2.05774 0.152095 -0.0314044 -1.03288 -0.00515541 -1.02486)
(-0.0204462 1.39559 0.6762 0.185956 0.0992449 -0.16551)
(0.0904473 0.511985 -1.43951 0.0830286 -0.141398 -0.173476)
(1.98176 0.13007 0.0593178 -0.993954 -0.00269629 -0.987803)
(-0.0054671 1.26091 0.805771 0.112737 0.160816 -0.10727)
(0.139345 -0.990736 1.28273 -0.176098 0.147529 0.0367536)
(2.15459 0.16747 -0.050645 -1.07811 -0.0046557 -1.07649)
(0.174678 -1.23161 -1.04446 -0.227523 -0.109326 0.0528453)
(0.0675475 0.639249 -1.40202 0.0816093 -0.126678 -0.149157)
(2.01507 0.150102 0.038749 -1.0078 0.00024627 -1.00727)
(0.18263 -1.26877 -0.785562 -0.200917 -0.117686 0.0182872)
(0.0170161 -0.747007 0.625937 -0.138888 0.0797101 0.121871)
(-1.22208 -0.169426 -0.061267 0.609168 -0.00366578 0.612917)
(-0.119632 0.831747 0.405985 0.174584 0.0948238 -0.0549524)
(-0.0161938 0.350023 -1.04878 0.0926571 -0.0852668 -0.0764632)
(-1.44766 -0.142265 -0.0597178 0.72171 -0.0016734 0.725945)
(-0.10307 0.92995 0.592371 0.119583 0.0979017 -0.0165129)
(-0.00113234 -0.82877 0.994646 -0.034834 0.0807567 0.0359663)
(-1.7156 -0.104297 -0.0204482 0.857995 -0.00141882 0.857603)
(-0.0135492 -0.988679 -0.807469 -0.0636932 -0.0417177 0.0772424)
(-0.0829888 0.506519 -1.24056 0.0791705 -0.0504623 0.00381832)
(-1.75931 -0.0767708 -0.031689 0.880014 -0.00022952 0.879293)
(-0.0159383 -1.10512 -0.679669 -0.0281105 -0.0389678 0.0440489)
)
;
    }
    XY-Zmin
    {
        type            calculated;
        value           nonuniform List<symmTensor> 9((0.219654 -0.507199 -1.37772 -0.163267 -0.174052 -0.0563872) (0.113165 -0.138169 -1.43332 -0.0802964 -0.159633 -0.0328689) (-0.134905 0.60835 -1.08516 0.134533 -0.128537 0.000372044) (-0.00223451 -0.331941 -0.813013 -0.00416047 -0.128812 0.00639498) (-0.0816721 -0.199693 -1.14266 0.0294444 -0.06847 0.0522276) (-0.0161547 0.69204 -1.34451 0.0527074 -0.0805022 -0.0365527) (0.0164699 -0.315071 -0.65682 -0.00809946 -0.0279789 -0.00837043) (0.0558124 -0.0188483 -0.69602 -0.0111566 0.0499138 -0.0446558) (0.0790676 0.502952 -1.04738 -0.0610655 0.0644074 -0.0180021));
    }
    YZ-Xmin
    {
        type            calculated;
        value           nonuniform List<symmTensor> 9((-0.00246364 -0.00522979 -0.00507282 0.000757144 -0.00060996 0.0017065) (-0.00210745 -0.0049038 -0.00205488 0.000683576 -0.000324512 0.00142388) (0.0001907 -0.00495808 0.00507511 -0.000837213 0.000379412 0.000646513) (-0.00327622 -0.00167002 -0.00501627 0.00154424 -0.000539592 0.00173198) (-0.00251754 -0.0015965 -0.00199568 0.00122701 2.94218e-05 0.00129053) (-0.00094098 0.000557929 0.00531864 0.000288829 0.000640601 0.000652151) (-0.00134173 0.00609819 -0.0055052 0.00136913 -0.000675357 -2.74027e-05) (-0.00143642 0.00592924 -5.37759e-05 0.00140461 0.000208797 3.18019e-05) (-0.00111514 0.0059378 0.00543871 0.000945572 0.000710609 0.000169568));
    }
    XZ-Ymin
    {
        type            calculated;
        value           nonuniform List<symmTensor> 9((0.294818 -1.35177 -0.51873 -0.307296 -0.0712229 0.012478) (0.262596 -1.28641 -0.167413 -0.264536 -0.0754959 0.00194048) (0.0677652 -0.940899 0.50681 -0.164966 0.00876201 0.0972003) (0.0461104 -0.806078 -0.32051 -0.135527 -0.0714352 0.0894169) (0.0351103 -0.949977 -0.140689 -0.113657 -0.0515771 0.078547) (0.147246 -0.875908 0.471137 -0.189219 0.0318336 0.0419737) (0.0388856 -0.643991 -0.303385 -0.0573494 -0.00642571 0.0184638) (0.0776344 -0.506751 0.0342064 -0.0566332 0.0206785 -0.0210013) (0.0884568 -0.498319 0.263577 -0.0683936 0.0275678 -0.0200632));
    }
    XY-Zmax
    {
        type            calculated;
        value           nonuniform List<symmTensor> 9((0.0104183 -0.477554 0.939197 -0.0985801 0.0811339 0.0881618) (-0.0971417 0.0226659 1.04073 0.00603141 0.0821828 0.0911103) (-0.0981353 0.563162 1.06518 0.0849145 0.106668 0.0132208) (0.103645 -0.471629 0.907629 -0.106943 0.0875651 0.00329808) (-0.0114121 -0.0237263 1.22057 -0.0277443 0.0603966 0.0391564) (-0.103885 0.634483 1.21544 0.07112 0.0925826 0.0327649) (0.0727392 -0.294564 0.516534 -0.0248707 0.0373854 -0.0478685) (0.0381614 -0.112327 0.950159 -0.00815004 -0.036658 -0.0300113) (-0.0664426 0.673292 1.45479 -0.0134891 0.00975627 0.0799316));
    }
    XZ-Ymax
    {
        type            calculated;
        value           nonuniform List<symmTensor> 9((-0.173538 1.10599 -0.544963 0.215549 -0.0654663 -0.0420117) (-0.172443 1.1116 -0.00477296 0.222366 0.0151782 -0.0499225) (-0.131747 1.09914 0.533507 0.156522 0.0618644 -0.0247752) (-0.0409666 1.39414 -0.666027 0.104768 -0.0414047 -0.0638009) (-0.124199 1.33231 0.00774187 0.17088 0.0189976 -0.0466814) (-0.128519 1.24808 0.612344 0.133565 0.0606226 -0.0050453) (0.101017 1.07853 -0.568397 -0.101554 0.0338232 0.000536732) (0.00918558 1.42542 -0.065212 -0.0331173 0.0250371 0.0239317) (-0.0587036 1.48151 0.714674 0.00833346 0.0304441 0.0503701));
    }
    YZ-Xmax
    {
        type            calculated;
        value           nonuniform List<symmTensor> 9((-0.00014074 -0.0053724 -0.00498044 3.72607e-05 -0.000150972 0.000103479) (-0.000518074 -0.0193864 0.00134462 0.000615246 0.000488255 -9.71717e-05) (0.000773204 -0.0296465 0.024852 0.00014209 0.00154668 -0.000915294) (-0.00177658 -0.00471647 -0.0347936 0.00242854 0.00226706 -0.00065196) (-0.000859778 -0.0125578 -0.00374039 0.0018222 -0.00264764 -0.000962424) (-0.000513723 -0.015133 0.0513036 0.00204605 -0.00396336 -0.00153232) (0.00336183 0.0532502 -0.0643468 -0.00393124 0.00282199 0.000569412) (0.00255197 0.0640583 -0.0063606 -0.00347357 -0.00134219 0.000921604) (-0.00107264 0.0830265 0.0917429 -0.00303685 0.000110918 0.00410949));
    }
}


// ************************************************************************* //
