/*--------------------------------*- C++ -*----------------------------------*\
| =========                 |                                                 |
| \\      /  F ield         | OpenFOAM: The Open Source CFD Toolbox           |
|  \\    /   O peration     | Version:  2312                                  |
|   \\  /    A nd           | Website:  www.openfoam.com                      |
|    \\/     M anipulation  |                                                 |
\*---------------------------------------------------------------------------*/
FoamFile
{
    version     2.0;
    format      ascii;
    arch        "LSB;label=32;scalar=64";
    class       volScalarField;
    location    "100";
    object      turbulenceProperties:I;
}
// * * * * * * * * * * * * * * * * * * * * * * * * * * * * * * * * * * * * * //

dimensions      [0 0 0 0 0 0 0];

internalField   nonuniform List<scalar> 
27
(
0.00568399
0.00477453
0.00604864
0.00475604
0.00305673
0.00464104
0.0055816
0.00407885
0.00560206
0.00132858
0.00133205
0.00217106
0.00172169
0.00138809
0.00219079
0.0026109
0.00232194
0.00334816
0.00694536
0.011489
0.0161317
0.0130221
0.00733446
0.013494
0.0160405
0.0122205
0.0160821
)
;

boundaryField
{
    aggregate
    {
        type            calculated;
        value           uniform 0;
    }
    XY-Zmin
    {
        type            calculated;
        value           uniform 0;
    }
    YZ-Xmin
    {
        type            calculated;
        value           nonuniform List<scalar> 9(0.00529254 0.00460375 0.00500541 0.00475002 0.00370467 0.00437243 0.00540991 0.00462316 0.00534414);
    }
    XZ-Ymin
    {
        type            calculated;
        value           uniform 0;
    }
    XY-Zmax
    {
        type            calculated;
        value           uniform 0;
    }
    XZ-Ymax
    {
        type            calculated;
        value           uniform 0;
    }
    YZ-Xmax
    {
        type            calculated;
        value           nonuniform List<scalar> 9(0.00710681 0.0115637 0.0160862 0.0128849 0.00744801 0.0133991 0.0157815 0.0118685 0.0159946);
    }
}


// ************************************************************************* //
