/*--------------------------------*- C++ -*----------------------------------*\
| =========                 |                                                 |
| \\      /  F ield         | OpenFOAM: The Open Source CFD Toolbox           |
|  \\    /   O peration     | Version:  2312                                  |
|   \\  /    A nd           | Website:  www.openfoam.com                      |
|    \\/     M anipulation  |                                                 |
\*---------------------------------------------------------------------------*/
FoamFile
{
    version     2.0;
    format      ascii;
    arch        "LSB;label=32;scalar=64";
    class       volSymmTensorField;
    location    "100";
    object      turbulenceProperties:R;
}
// * * * * * * * * * * * * * * * * * * * * * * * * * * * * * * * * * * * * * //

dimensions      [0 2 -2 0 0 0 0];

internalField   nonuniform List<symmTensor> 
27
(
(0.0334136 -0.00448544 -0.00463012 0.0300272 -0.00055656 0.0308934)
(0.0229098 -0.00385855 -0.00136972 0.020163 -0.000269245 0.0207772)
(0.0245199 -0.00281211 0.00298439 0.0238781 0.000208453 0.0246933)
(0.0242442 -0.00123659 -0.00470252 0.0225128 -0.000504079 0.0226882)
(0.00980888 -0.000878542 -0.00113933 0.00839649 2.01192e-05 0.00843992)
(0.0156723 9.86033e-05 0.00236787 0.0161211 0.000272246 0.0162755)
(0.0232112 0.00261748 -0.00234476 0.0243704 -0.000286954 0.0237771)
(0.0125823 0.00144496 -1.16189e-05 0.0132126 5.05036e-05 0.0128805)
(0.0230942 0.00263136 0.0024928 0.0239495 0.000325517 0.0235941)
(0.000978073 -6.65538e-06 -6.48575e-06 0.000978035 -8.94761e-07 0.00097895)
(0.0011747 -1.59208e-05 -6.00534e-06 0.00117435 -8.70349e-07 0.00117655)
(0.00291187 -4.4515e-05 4.44686e-05 0.002892 3.31293e-06 0.00290194)
(0.00234378 -2.54295e-05 -5.4919e-05 0.00235793 -2.18314e-06 0.00235733)
(0.00155627 -3.12001e-05 -3.08594e-05 0.00158036 -4.85516e-07 0.00157883)
(0.004105 -6.24966e-06 0.000160534 0.0041007 7.62368e-06 0.00410307)
(0.00652722 0.000195064 -0.000187731 0.00654663 -1.38217e-05 0.00652079)
(0.0049235 0.000216799 2.50484e-06 0.00497587 2.52035e-06 0.00494858)
(0.00964573 0.000442348 0.000426913 0.00976774 4.18495e-05 0.00973181)
(0.0216077 -0.00303486 -0.00292229 0.0213711 -9.1082e-05 0.021411)
(0.0486945 -0.0164155 0.00202263 0.0434985 0.000436116 0.0428621)
(0.0927449 -0.0264449 0.023663 0.0839818 0.0014327 0.0830024)
(0.0842282 -0.00171327 -0.0327264 0.0781409 0.00212214 0.0752573)
(0.0346439 -0.00908859 -0.00275712 0.0266797 -0.00250833 0.0240416)
(0.122722 -0.0122876 0.0499293 0.117656 -0.00377639 0.114246)
(0.19659 0.0544916 -0.0615821 0.181407 0.00269375 0.185704)
(0.148934 0.0650833 -0.00667244 0.146235 -0.00128522 0.150443)
(0.264848 0.0827508 0.0878367 0.271356 0.000107055 0.278254)
)
;

boundaryField
{
    aggregate
    {
        type            calculated;
        value           nonuniform List<symmTensor> 
24
(
(0.222998 -1.20563 1.05552 -0.269517 0.126278 0.0465197)
(1.93601 0.143098 -0.0295466 -0.971779 -0.00485043 -0.96423)
(-0.0202697 1.38355 0.670364 0.184351 0.0983883 -0.164081)
(0.0896532 0.507489 -1.42687 0.0822996 -0.140156 -0.171953)
(1.8625 0.122243 0.0557482 -0.93414 -0.00253403 -0.928359)
(-0.00543075 1.25253 0.800413 0.111988 0.159746 -0.106557)
(0.138167 -0.982359 1.27188 -0.17461 0.146282 0.0364428)
(2.02974 0.157765 -0.0477102 -1.01563 -0.00438591 -1.01411)
(0.17356 -1.22373 -1.03777 -0.226066 -0.108626 0.0525069)
(0.0671017 0.63503 -1.39276 0.0810706 -0.125842 -0.148172)
(1.8947 0.141136 0.0364344 -0.947598 0.000231559 -0.947098)
(0.181038 -1.25771 -0.778715 -0.199166 -0.11666 0.0181278)
(0.016876 -0.740856 0.620783 -0.137744 0.0790538 0.120868)
(-1.13101 -0.1568 -0.0567013 0.563772 -0.00339261 0.567242)
(-0.118331 0.822703 0.401571 0.172686 0.0937928 -0.054355)
(-0.0160301 0.346485 -1.03818 0.0917205 -0.0844049 -0.0756903)
(-1.34736 -0.132409 -0.0555805 0.671709 -0.00155747 0.675651)
(-0.102281 0.922831 0.587836 0.118668 0.0971523 -0.0163865)
(-0.00112172 -0.820992 0.985311 -0.0345071 0.0799988 0.0356288)
(-1.60524 -0.0975886 -0.0191329 0.802805 -0.00132755 0.802439)
(-0.0134529 -0.981653 -0.80173 -0.0632405 -0.0414212 0.0766934)
(-0.0824056 0.502959 -1.23185 0.0786141 -0.0501076 0.00379149)
(-1.6474 -0.0718876 -0.0296733 0.824039 -0.000214921 0.823363)
(-0.0157904 -1.09486 -0.673361 -0.0278496 -0.0386062 0.0436401)
)
;
    }
    XY-Zmin
    {
        type            calculated;
        value           nonuniform List<symmTensor> 9((0.21859 -0.504741 -1.37104 -0.162476 -0.173208 -0.0561139) (0.112623 -0.137508 -1.42645 -0.0799118 -0.158869 -0.0327114) (-0.134222 0.605269 -1.07966 0.133851 -0.127886 0.00037016) (-0.00222083 -0.32991 -0.808036 -0.004135 -0.128023 0.00635584) (-0.0812373 -0.19863 -1.13658 0.0292877 -0.0681055 0.0519496) (-0.0160802 0.688852 -1.33831 0.0524646 -0.0801313 -0.0363844) (0.0163656 -0.313076 -0.65266 -0.00804816 -0.0278017 -0.00831741) (0.0554659 -0.0187313 -0.6917 -0.0110873 0.049604 -0.0443786) (0.0786598 0.500358 -1.04198 -0.0607505 0.0640753 -0.0179093));
    }
    YZ-Xmin
    {
        type            calculated;
        value           nonuniform List<symmTensor> 9((0.0177451 -0.00261489 -0.00253641 0.0193555 -0.00030498 0.0198301) (0.0133015 -0.0024519 -0.00102744 0.014697 -0.000162256 0.0150672) (0.0170346 -0.00247904 0.00253756 0.0165206 0.000189706 0.0172625) (0.0136521 -0.000835009 -0.00250814 0.0160624 -0.000269796 0.0161562) (0.00803796 -0.000798249 -0.000997838 0.00991023 1.47109e-05 0.00994199) (0.0124622 0.000278965 0.00265932 0.0130771 0.0003203 0.0132588) (0.0191306 0.0030491 -0.0027526 0.020486 -0.000337678 0.0197878) (0.0137438 0.00296462 -2.68879e-05 0.0151643 0.000104399 0.0144779) (0.0187633 0.0029689 0.00271936 0.0197937 0.000355305 0.0194057));
    }
    XZ-Ymin
    {
        type            calculated;
        value           nonuniform List<symmTensor> 9((0.293376 -1.34516 -0.516192 -0.305793 -0.0708746 0.0124169) (0.261301 -1.28007 -0.166587 -0.263232 -0.0751237 0.00193091) (0.0674021 -0.935857 0.504094 -0.164082 0.00871505 0.0966794) (0.0458255 -0.801098 -0.31853 -0.13469 -0.0709938 0.0888645) (0.0349106 -0.944575 -0.139889 -0.113011 -0.0512838 0.0781004) (0.14643 -0.871058 0.468529 -0.188172 0.0316574 0.0417413) (0.0386394 -0.639912 -0.301463 -0.0569862 -0.00638501 0.0183469) (0.0770856 -0.503169 0.0339646 -0.0562328 0.0205323 -0.0208528) (0.087825 -0.49476 0.261695 -0.0679051 0.0273709 -0.0199199));
    }
    XY-Zmax
    {
        type            calculated;
        value           nonuniform List<symmTensor> 9((0.0103625 -0.474995 0.934164 -0.0980518 0.0806991 0.0876893) (-0.0966445 0.0225499 1.0354 0.00600054 0.0817621 0.090644) (-0.0976349 0.560289 1.05974 0.0844814 0.106124 0.0131534) (0.103071 -0.469018 0.902604 -0.106351 0.0870803 0.00327982) (-0.011357 -0.0236117 1.21467 -0.0276103 0.0601048 0.0389673) (-0.103386 0.631436 1.2096 0.0707784 0.0921379 0.0326075) (0.0722197 -0.292461 0.512845 -0.0246931 0.0371184 -0.0475266) (0.0379547 -0.111718 0.945013 -0.0081059 -0.0364594 -0.0298488) (-0.0661479 0.670306 1.44833 -0.0134292 0.009713 0.0795771));
    }
    XZ-Ymax
    {
        type            calculated;
        value           nonuniform List<symmTensor> 9((-0.172659 1.10039 -0.542204 0.214458 -0.0651349 -0.041799) (-0.171576 1.106 -0.00474894 0.221247 0.0151019 -0.0496712) (-0.131075 1.09354 0.530786 0.155724 0.0615489 -0.0246488) (-0.0407779 1.38772 -0.662959 0.104285 -0.0412139 -0.063507) (-0.123616 1.32606 0.00770557 0.170079 0.0189085 -0.0464625) (-0.127902 1.24208 0.609403 0.132923 0.0603314 -0.00502107) (0.100496 1.07297 -0.565465 -0.10103 0.0336487 0.000533963) (0.00914392 1.41896 -0.0649162 -0.0329671 0.0249235 0.0238232) (-0.0584432 1.47494 0.711504 0.0082965 0.0303091 0.0501467));
    }
    YZ-Xmax
    {
        type            calculated;
        value           nonuniform List<symmTensor> 9((0.0223923 -0.00324119 -0.00300472 0.0224997 -9.1082e-05 0.0225396) (0.0452276 -0.0173162 0.00120104 0.0462399 0.000436116 0.0456036) (0.0870379 -0.0274618 0.0230206 0.0864533 0.0014327 0.0854738) (0.0760506 -0.00441496 -0.0325694 0.0799869 0.00212214 0.0771034) (0.0285707 -0.011897 -0.00354359 0.0311116 -0.00250833 0.0284735) (0.11607 -0.0144191 0.0488834 0.118509 -0.00377639 0.115099) (0.184964 0.0508305 -0.0614228 0.178002 0.00269375 0.182298) (0.142361 0.0613392 -0.00609061 0.136591 -0.00128522 0.1408) (0.267321 0.0801348 0.0885476 0.265425 0.000107055 0.272322));
    }
}


// ************************************************************************* //
