/*--------------------------------*- C++ -*----------------------------------*\
| =========                 |                                                 |
| \\      /  F ield         | OpenFOAM: The Open Source CFD Toolbox           |
|  \\    /   O peration     | Version:  2312                                  |
|   \\  /    A nd           | Website:  www.openfoam.com                      |
|    \\/     M anipulation  |                                                 |
\*---------------------------------------------------------------------------*/
FoamFile
{
    version     2.0;
    format      ascii;
    arch        "LSB;label=32;scalar=64";
    class       volScalarField;
    location    "100";
    object      turbulenceProperties:nuEff;
}
// * * * * * * * * * * * * * * * * * * * * * * * * * * * * * * * * * * * * * //

dimensions      [0 2 -1 0 0 0 0];

internalField   nonuniform List<scalar> 
27
(
2.82491e-05
2.65938e-05
2.09882e-05
2.86837e-05
2.36764e-05
1.84997e-05
1.84979e-05
1.48376e-05
1.91616e-05
1.00328e-05
1.00751e-05
1.01705e-05
1.02392e-05
1.03326e-05
1.05453e-05
1.06118e-05
1.06899e-05
1.14514e-05
2.52082e-05
9.36438e-05
0.0001357
0.000156431
0.000190057
0.000211981
0.000220066
0.000235585
0.00028712
)
;

boundaryField
{
    aggregate
    {
        type            calculated;
        value           nonuniform List<scalar> 
24
(
0.00152989
0.000169041
0.00115859
0.00113896
0.000166175
0.00150398
0.00118275
0.000172564
0.00156176
0.0015151
0.000167406
0.00114741
0.00121448
0.000134191
0.000919731
0.000989298
0.000144339
0.00130635
0.00106554
0.000155464
0.00140699
0.00142286
0.000157214
0.00107755
)
;
    }
    XY-Zmin
    {
        type            calculated;
        value           nonuniform List<scalar> 9(0.00206355 0.00208762 0.00197505 0.00163362 0.00187849 0.00217069 0.00157887 0.00161095 0.00193889);
    }
    YZ-Xmin
    {
        type            calculated;
        value           uniform 2e-05;
    }
    XZ-Ymin
    {
        type            calculated;
        value           nonuniform List<scalar> 9(0.00204451 0.00202817 0.00186603 0.00161862 0.00175873 0.00180624 0.00157887 0.00141457 0.00140015);
    }
    XY-Zmax
    {
        type            calculated;
        value           nonuniform List<scalar> 9(0.00186603 0.00195382 0.00196077 0.00180624 0.00207006 0.00208188 0.00140015 0.0018464 0.00225476);
    }
    XZ-Ymax
    {
        type            calculated;
        value           nonuniform List<scalar> 9(0.00197505 0.00198724 0.00196077 0.00217069 0.00213236 0.00208188 0.00193889 0.00220472 0.00225476);
    }
    YZ-Xmax
    {
        type            calculated;
        value           nonuniform List<scalar> 9(2.52082e-05 9.36438e-05 0.0001357 0.000156431 0.000190057 0.000211981 0.000220066 0.000235585 0.00028712);
    }
}


// ************************************************************************* //
