/*--------------------------------*- C++ -*----------------------------------*\
| =========                 |                                                 |
| \\      /  F ield         | OpenFOAM: The Open Source CFD Toolbox           |
|  \\    /   O peration     | Version:  2312                                  |
|   \\  /    A nd           | Website:  www.openfoam.com                      |
|    \\/     M anipulation  |                                                 |
\*---------------------------------------------------------------------------*/
FoamFile
{
    version     2.0;
    format      ascii;
    arch        "LSB;label=32;scalar=64";
    class       volVectorField;
    location    "100";
    object      U;
}
// * * * * * * * * * * * * * * * * * * * * * * * * * * * * * * * * * * * * * //

dimensions      [0 1 -1 0 0 0 0];

internalField   nonuniform List<vector> 
27
(
(30.9492 3.92263 0.214925)
(30.3194 3.50036 1.45594)
(25.6167 2.8099 1.34967)
(31.7885 3.5829 -0.135147)
(30.6322 3.33736 1.04911)
(27.1888 1.79889 1.194)
(27.4435 3.21783 -0.00512339)
(27.6289 3.391 0.174528)
(27.2865 2.38837 0.132713)
(23.2526 3.57926 0.876801)
(25.5801 2.60109 1.10377)
(24.6496 2.80082 0.467274)
(28.1121 1.84477 -0.335328)
(28.5315 1.26709 0.346946)
(29.1841 1.43344 1.04015)
(30.9018 1.79593 0.11742)
(30.1926 2.48862 0.46449)
(29.3767 1.87205 0.36579)
(21.0712 0.960275 -0.170195)
(18.443 0.534465 -0.790434)
(18.192 1.19838 -0.551252)
(21.5485 -1.65822 -0.126741)
(22.9327 -1.6763 -0.490459)
(25.4711 -0.635898 0.0045354)
(26.9735 -1.62616 0.265837)
(31.5125 -0.799414 0.973407)
(32.3871 -0.00376105 0.875903)
)
;

boundaryField
{
    aggregate
    {
        type            noSlip;
    }
    XY-Zmin
    {
        type            noSlip;
    }
    YZ-Xmin
    {
        type            freestreamVelocity;
        freestreamValue uniform (25.75 3.62 0);
        value           nonuniform List<vector> 9((25.7753 3.62147 0.00104525) (25.7722 3.61942 0.00707444) (25.7494 3.61606 0.00655756) (25.7793 3.61982 -0.000656427) (25.7737 3.61863 0.00509474) (25.757 3.61118 0.00578228) (25.7582 3.61805 -2.49023e-05) (25.7591 3.61889 0.000848693) (25.7575 3.61403 0.000643766));
    }
    XZ-Ymin
    {
        type            noSlip;
    }
    XY-Zmax
    {
        type            noSlip;
    }
    XZ-Ymax
    {
        type            noSlip;
    }
    YZ-Xmax
    {
        type            freestreamVelocity;
        freestreamValue uniform (25.75 3.62 0);
        value           nonuniform List<vector> 9((21.0732 0.961437 -0.17012) (18.4601 0.541688 -0.788584) (18.2163 1.20618 -0.549476) (21.5739 -1.62627 -0.125974) (22.952 -1.63998 -0.487096) (25.4725 -0.615262 0.00451341) (26.966 -1.59437 0.264226) (31.492 -0.783696 0.969945) (32.376 0.00230571 0.874436));
    }
}


// ************************************************************************* //
