/*--------------------------------*- C++ -*----------------------------------*\
| =========                 |                                                 |
| \\      /  F ield         | OpenFOAM: The Open Source CFD Toolbox           |
|  \\    /   O peration     | Version:  2312                                  |
|   \\  /    A nd           | Website:  www.openfoam.com                      |
|    \\/     M anipulation  |                                                 |
\*---------------------------------------------------------------------------*/
FoamFile
{
    version     2.0;
    format      ascii;
    arch        "LSB;label=32;scalar=64";
    class       volScalarField;
    location    "200";
    object      div(phi);
}
// * * * * * * * * * * * * * * * * * * * * * * * * * * * * * * * * * * * * * //

dimensions      [0 0 -1 0 0 0 0];

internalField   nonuniform List<scalar> 
10720
(
3.95708e-05
3.96497e-05
-4.06969e-07
-9.54918e-06
1.25013e-05
-3.12149e-05
1.83722e-05
-6.59084e-06
1.58902e-05
1.12001e-05
1.88966e-06
-1.01428e-05
-1.63644e-05
-1.37705e-05
-5.93278e-06
1.89713e-06
5.13135e-06
7.83704e-06
5.75984e-06
9.41311e-06
4.97416e-06
1.50401e-05
4.64471e-05
2.19447e-05
-1.15813e-05
-1.80311e-06
-3.12217e-05
3.26363e-05
1.39551e-05
1.3623e-06
-2.27918e-05
-2.97779e-06
5.81215e-06
1.52214e-05
1.6195e-05
2.05711e-05
6.0337e-05
0.000161804
0.00240258
9.06662e-05
0.000101373
3.6746e-05
4.06252e-05
-3.70989e-05
-3.86813e-05
9.61132e-06
5.86624e-05
4.8975e-05
2.3316e-05
1.23958e-05
9.1686e-06
8.76579e-06
7.4634e-06
5.01834e-06
2.76679e-06
2.88436e-06
3.29003e-06
3.44518e-06
3.20877e-06
-1.67758e-06
-3.15311e-06
-1.13048e-05
-1.21654e-05
-1.03956e-05
-4.98957e-06
5.63401e-07
1.49331e-06
7.36419e-06
-1.75774e-07
-2.42974e-07
2.21156e-06
-3.2951e-07
-1.74814e-06
-7.10534e-07
-2.12351e-06
-1.57874e-05
-3.24154e-05
-9.49288e-06
-3.76391e-05
9.94991e-06
-3.17942e-05
8.35545e-06
-2.86658e-05
6.91035e-06
-2.38895e-05
1.99007e-05
1.34713e-05
1.02307e-05
-1.40704e-07
-1.07823e-05
-1.23029e-05
-6.35745e-06
2.81366e-06
8.49705e-06
1.04347e-05
8.80934e-06
6.24767e-06
2.60995e-06
-3.01442e-06
-4.9064e-06
-2.08383e-06
6.82312e-06
1.29347e-05
7.02644e-06
-2.82028e-05
-3.13505e-05
-1.71939e-05
-1.27451e-06
1.67574e-05
-8.85758e-06
6.7236e-06
1.77069e-05
1.56877e-05
2.9222e-05
8.3615e-05
0.000174351
0.00136088
5.51105e-05
4.4243e-05
2.23953e-05
-3.89882e-06
-4.24599e-05
-2.35334e-05
1.84166e-05
4.01811e-05
3.16019e-05
1.65856e-05
8.76719e-06
6.17581e-06
4.13138e-06
2.40209e-06
-8.13286e-07
-4.69915e-07
-2.24434e-07
2.77435e-06
2.76017e-06
3.38443e-06
-6.02446e-07
-2.48596e-06
-7.94028e-06
-8.48394e-06
-5.67845e-06
4.86157e-07
7.9753e-06
1.13357e-05
1.06852e-05
9.50173e-06
8.71573e-06
5.69454e-06
3.0193e-06
-3.20378e-07
9.6587e-07
-7.81131e-07
-1.43381e-05
-5.12726e-05
1.19435e-05
6.28434e-05
-3.73466e-05
-3.4829e-06
-2.64436e-05
-9.64644e-06
-2.68397e-05
1.28272e-05
6.65063e-07
1.71412e-05
1.20782e-05
1.56122e-06
-7.54241e-06
-1.21857e-05
-1.042e-05
-5.06773e-06
-1.06932e-06
1.91682e-06
2.5098e-06
2.95862e-06
4.83692e-06
3.6659e-06
7.63569e-06
1.72369e-05
4.24568e-06
-1.79178e-05
-8.81809e-06
-1.19243e-05
3.8343e-05
2.79314e-05
7.8441e-06
-2.55592e-05
5.55716e-07
3.80788e-06
3.56149e-06
6.48037e-06
3.67901e-06
7.38172e-06
3.31538e-05
0.00076982
1.69569e-05
2.61412e-05
1.53492e-05
-3.28508e-05
-3.15678e-05
-2.41821e-06
2.28104e-05
3.38251e-05
2.2553e-05
1.07998e-05
5.77503e-06
5.32741e-06
7.37471e-06
7.80149e-06
7.27534e-06
5.68293e-06
5.47553e-06
4.62576e-06
5.16121e-06
3.45593e-06
1.56753e-06
-1.30698e-06
-5.52171e-06
-7.30433e-06
-8.5416e-06
-5.80092e-06
-5.23014e-06
-5.55958e-06
-1.84421e-06
-3.4445e-06
-6.08261e-06
-6.20806e-07
-3.16835e-06
-2.43787e-06
-2.99e-06
-2.33955e-06
-1.36002e-05
-1.22122e-05
-1.59485e-05
-2.29816e-06
-8.00268e-06
-1.16386e-05
-2.36292e-05
-1.67234e-05
-6.62511e-06
-1.24446e-05
2.40955e-05
1.54968e-05
1.01947e-05
-8.04582e-07
-7.98149e-06
-9.15373e-06
-3.43832e-06
2.91463e-06
8.13517e-06
9.6292e-06
9.22371e-06
7.78151e-06
5.59343e-06
1.966e-06
2.98401e-07
1.78445e-06
5.9858e-06
1.16846e-05
1.11879e-05
-6.89426e-06
-1.48019e-05
-1.15843e-05
-3.11658e-06
8.75575e-06
-4.05378e-06
4.65737e-06
1.08132e-05
1.13393e-05
2.12277e-05
6.05549e-05
0.000121465
0.000735514
2.28601e-05
1.35931e-05
-1.85045e-05
-2.20888e-05
-1.8793e-05
2.09227e-06
2.6751e-05
3.02018e-05
1.88992e-05
9.19927e-06
4.44379e-06
4.02994e-06
4.88868e-06
3.89628e-06
3.38965e-06
1.89786e-06
2.8851e-06
2.70217e-06
3.80877e-06
2.11272e-06
6.38104e-07
-2.62598e-06
-5.40778e-06
-7.40424e-06
-6.52118e-06
-3.33813e-06
1.58785e-06
5.2948e-06
5.44241e-06
5.65274e-06
4.53921e-06
3.16831e-06
3.85322e-07
-2.28438e-06
-1.35578e-06
-2.76316e-06
-1.63018e-05
-4.22505e-05
4.55681e-06
-8.5557e-06
-1.4145e-06
-1.90643e-05
-5.28496e-06
-1.91646e-05
-1.38222e-05
1.918e-05
6.57792e-06
1.74994e-05
9.37111e-06
1.48914e-06
-5.5123e-06
-7.28767e-06
-5.89707e-06
-2.89109e-06
-3.34331e-07
6.66234e-07
9.80296e-07
5.86968e-07
1.40454e-06
-2.50178e-07
2.10056e-06
8.47907e-06
-2.20485e-06
-1.87412e-05
-1.59329e-05
-1.7281e-05
3.22161e-05
3.70213e-05
1.26555e-05
-2.24472e-05
-1.95982e-06
4.7471e-06
3.0013e-06
6.85838e-06
-1.61341e-06
1.6334e-06
1.03516e-05
0.000412244
6.61139e-06
-6.63156e-06
-9.70294e-06
-2.66283e-05
-9.01728e-06
1.02839e-05
2.52902e-05
2.58758e-05
1.58116e-05
6.78715e-06
2.43378e-06
2.90606e-06
4.14777e-06
6.00551e-06
5.48623e-06
5.72632e-06
4.55902e-06
4.83876e-06
4.01173e-06
3.65244e-06
1.71442e-06
8.8537e-08
-2.81212e-06
-3.85282e-06
-6.10881e-06
-4.72444e-06
-5.46235e-06
-7.46069e-06
-7.7747e-06
-2.72187e-06
-7.87436e-06
-2.10896e-06
-3.55736e-06
-1.67671e-06
-3.67027e-06
-4.55033e-07
-1.24697e-05
-2.16891e-06
-1.52999e-05
-7.32059e-06
-6.32422e-06
-3.53135e-06
-1.78344e-05
-7.66289e-06
2.19599e-06
-2.27781e-06
2.233e-05
1.37675e-05
7.4277e-06
-2.19789e-07
-5.24519e-06
-4.81057e-06
-1.68001e-06
3.14383e-06
6.19375e-06
8.16382e-06
7.98366e-06
7.75747e-06
6.37347e-06
4.30017e-06
3.44904e-06
4.42629e-06
7.14701e-06
1.19475e-05
1.4436e-05
2.98345e-06
-4.01708e-06
-7.95704e-06
-3.84512e-06
1.7718e-06
-8.57695e-07
4.70421e-06
9.70208e-06
1.16665e-05
2.03415e-05
5.71024e-05
9.87454e-05
0.000481916
3.97571e-06
-7.10269e-06
-1.69633e-05
-9.16025e-06
-9.44934e-06
1.02812e-05
2.42262e-05
2.23354e-05
1.39483e-05
5.96234e-06
2.71712e-06
2.70389e-06
3.67051e-06
4.47729e-06
3.85901e-06
3.86606e-06
3.13696e-06
3.63519e-06
3.0035e-06
2.36893e-06
5.34834e-07
-1.64137e-06
-3.82941e-06
-5.78964e-06
-6.11213e-06
-4.93281e-06
-1.7689e-06
1.36719e-06
2.12805e-06
3.00062e-06
1.7792e-06
1.27283e-06
-7.59782e-07
-3.14358e-06
-2.2962e-06
-3.87132e-06
-1.56224e-05
-2.95166e-05
-2.72465e-06
1.52712e-05
-1.02663e-05
-1.07572e-05
-9.26042e-07
-9.73485e-06
-2.49781e-06
1.66139e-05
8.66477e-06
1.26759e-05
7.3676e-06
7.41955e-07
-2.38387e-06
-3.56291e-06
-2.23957e-06
-6.53373e-07
7.31256e-07
1.04199e-06
6.28503e-07
-5.70853e-08
-7.39197e-07
-2.62405e-06
-1.3005e-06
1.82947e-06
-3.84754e-06
-1.59545e-05
-1.66318e-05
-2.11012e-05
2.03307e-05
3.73897e-05
1.77879e-05
-1.74079e-05
-4.85662e-06
5.29336e-06
3.34142e-06
6.72728e-06
-5.09668e-06
-6.31268e-07
4.03031e-07
0.000253982
-8.88914e-06
2.4264e-06
-4.55527e-06
-2.03436e-05
-1.98143e-06
1.04429e-05
2.10111e-05
1.99298e-05
1.22949e-05
5.2232e-06
1.92922e-06
1.2467e-06
2.96267e-06
3.38668e-06
4.50877e-06
3.64639e-06
4.0979e-06
2.92626e-06
3.46699e-06
1.83596e-06
1.96561e-06
-7.24354e-07
-7.48862e-07
-3.17642e-06
-3.40981e-06
-3.9923e-06
-4.16909e-06
-6.58429e-06
-1.05095e-05
-2.17245e-06
-7.95553e-06
-2.74376e-06
-3.67829e-06
-6.62237e-07
-3.2026e-06
1.18194e-06
-9.81513e-06
4.12516e-06
-1.25117e-05
-1.94668e-05
-5.47899e-06
-4.63602e-07
-1.13721e-05
2.33127e-06
4.61485e-06
3.11786e-06
1.59483e-05
1.00706e-05
5.3156e-06
3.74172e-07
-1.96405e-06
-2.15302e-06
1.93475e-07
2.45495e-06
4.8918e-06
5.83606e-06
6.59682e-06
6.43069e-06
5.89239e-06
4.86398e-06
4.67967e-06
5.68546e-06
7.20759e-06
1.08942e-05
1.33203e-05
7.74498e-06
1.78878e-06
-3.64915e-06
-4.31508e-06
-2.74838e-06
6.66717e-07
5.31364e-06
8.63275e-06
1.17976e-05
1.91357e-05
5.70463e-05
8.44782e-05
0.000345821
1.43576e-05
6.16077e-07
-1.24638e-05
-3.88442e-06
-6.30746e-06
1.03826e-05
1.85097e-05
1.69834e-05
1.05787e-05
5.26503e-06
2.10816e-06
2.06084e-06
2.72989e-06
3.53394e-06
3.64419e-06
3.56938e-06
3.18483e-06
3.16897e-06
2.53764e-06
2.04637e-06
5.20207e-07
-8.7973e-07
-2.58807e-06
-4.21366e-06
-4.99176e-06
-4.9468e-06
-3.16916e-06
-8.96204e-07
-1.26149e-07
1.01131e-06
5.76222e-08
1.42523e-07
-1.45568e-06
-3.14734e-06
-2.64298e-06
-4.20788e-06
-1.38855e-05
-1.87567e-05
-8.14605e-06
6.83285e-06
-3.81145e-06
-6.2464e-06
5.8739e-06
-2.47192e-06
3.06694e-06
1.22358e-05
6.86186e-06
9.20087e-06
4.6931e-06
1.69553e-06
-7.07366e-07
-6.6743e-07
-2.93728e-07
9.90367e-07
1.43773e-06
1.7149e-06
1.0676e-06
3.5928e-07
-9.00729e-07
-2.53631e-06
-2.13038e-06
-2.43337e-07
-3.02436e-06
-1.04469e-05
-1.27611e-05
-1.87963e-05
1.08545e-05
2.96746e-05
2.03801e-05
-9.3703e-06
-5.69806e-06
4.65322e-06
3.11616e-06
6.13685e-06
-1.25026e-05
-3.58872e-06
-2.09203e-06
0.000167556
4.86455e-06
-2.42124e-07
1.51111e-06
-1.40173e-05
3.95029e-07
8.26993e-06
1.56024e-05
1.4925e-05
1.00414e-05
4.74993e-06
1.78255e-06
1.30653e-06
1.5324e-06
2.64481e-06
2.54183e-06
3.03443e-06
2.25964e-06
2.5223e-06
1.52919e-06
1.69393e-06
3.35117e-07
1.78202e-08
-1.28645e-06
-1.65338e-06
-2.79894e-06
-2.58353e-06
-2.93425e-06
-5.11065e-06
-9.8318e-06
-2.01964e-06
-7.18255e-06
-3.43048e-06
-3.57468e-06
-5.64192e-07
-2.62752e-06
2.825e-06
-7.75888e-06
5.9272e-06
-6.21829e-06
2.31532e-06
5.16009e-07
4.09093e-06
-3.64452e-06
5.41591e-06
4.91756e-06
3.58064e-06
1.03178e-05
6.67589e-06
3.95754e-06
1.3258e-06
-2.23835e-07
-8.47589e-08
7.76206e-07
2.35798e-06
3.39571e-06
4.35996e-06
4.83099e-06
5.10808e-06
4.79277e-06
4.41425e-06
4.67101e-06
5.47636e-06
6.48269e-06
8.68901e-06
1.06982e-05
7.83561e-06
4.14167e-06
-1.24512e-06
-3.63666e-06
-4.87409e-06
8.21144e-07
5.39271e-06
8.12033e-06
1.0851e-05
1.63484e-05
5.05362e-05
6.83567e-05
0.000258957
2.58324e-06
6.03851e-06
-1.04814e-05
-2.60936e-06
-4.17802e-06
7.92859e-06
1.34765e-05
1.2485e-05
8.64721e-06
4.44117e-06
2.32544e-06
1.39788e-06
2.04649e-06
2.21029e-06
2.85626e-06
2.43345e-06
2.76935e-06
2.09013e-06
2.24113e-06
1.23012e-06
7.43496e-07
-7.00625e-07
-1.53165e-06
-3.10045e-06
-3.76165e-06
-4.27937e-06
-3.41385e-06
-2.13871e-06
-1.58002e-06
-3.22089e-07
-1.09412e-06
-5.81885e-07
-1.7453e-06
-3.07283e-06
-2.59224e-06
-4.01547e-06
-1.18586e-05
-1.18035e-05
-1.07158e-05
2.004e-07
1.36648e-07
-6.12297e-07
6.38874e-06
4.65826e-07
3.19231e-06
7.53146e-06
5.39307e-06
5.68805e-06
3.9583e-06
1.61851e-06
8.64786e-07
3.14207e-07
1.05264e-06
1.3532e-06
2.04642e-06
1.86296e-06
1.77401e-06
9.48766e-07
2.69913e-08
-1.29044e-06
-1.23192e-06
-4.58649e-08
-1.0634e-06
-4.65598e-06
-7.61281e-06
-1.15397e-05
3.24555e-06
2.2744e-05
1.86231e-05
-3.76344e-06
-4.77651e-06
4.0352e-06
3.18379e-06
3.70229e-06
-1.66313e-05
-4.29368e-06
-6.67484e-06
0.000121709
7.71197e-06
-4.11373e-06
4.16901e-07
-1.12088e-05
9.63949e-07
6.42029e-06
1.09106e-05
1.11779e-05
7.75571e-06
4.30978e-06
1.74624e-06
9.82463e-07
1.08853e-06
1.47736e-06
1.79066e-06
1.80203e-06
1.7148e-06
1.39648e-06
1.18438e-06
6.65661e-07
3.33786e-07
-4.71549e-07
-6.98969e-07
-1.56451e-06
-1.69666e-06
-1.96442e-06
-1.75459e-06
-3.34298e-06
-7.80659e-06
-1.86579e-06
-5.58474e-06
-3.51575e-06
-3.57563e-06
-8.20586e-07
-1.847e-06
3.75446e-06
-6.56717e-06
6.0048e-06
-1.75524e-06
6.59112e-06
3.07867e-06
4.50587e-06
-6.16258e-07
3.99061e-06
3.6406e-06
3.20873e-06
5.90207e-06
4.8846e-06
3.21762e-06
1.73819e-06
7.92671e-07
7.12047e-07
1.15607e-06
1.92856e-06
2.5588e-06
3.13973e-06
3.51758e-06
3.89477e-06
3.75065e-06
3.65018e-06
3.98377e-06
4.60639e-06
5.27481e-06
6.49524e-06
7.68595e-06
6.03115e-06
3.77645e-06
2.20628e-07
-2.99135e-06
-5.13654e-06
4.23961e-07
5.0527e-06
7.66976e-06
1.03026e-05
1.36724e-05
4.22177e-05
5.02322e-05
0.000180931
-7.77445e-08
3.40358e-06
-9.75314e-06
-4.59922e-07
-2.70672e-06
5.4342e-06
9.53872e-06
9.16287e-06
6.57625e-06
3.83255e-06
1.77736e-06
1.15018e-06
9.72485e-07
1.51394e-06
1.42934e-06
1.88166e-06
1.47212e-06
1.79298e-06
1.16165e-06
1.21326e-06
2.17586e-07
-1.53768e-07
-1.28546e-06
-2.0592e-06
-2.98242e-06
-3.41063e-06
-3.20541e-06
-2.66059e-06
-2.42528e-06
-1.30357e-06
-1.64922e-06
-1.13928e-06
-1.85733e-06
-2.83885e-06
-2.63097e-06
-3.51018e-06
-9.93183e-06
-7.66556e-06
-1.14534e-05
1.46514e-06
2.27373e-06
1.16557e-06
4.36595e-06
1.20018e-06
2.08242e-06
4.58773e-06
4.04955e-06
4.09367e-06
2.84108e-06
1.93229e-06
1.00721e-06
1.05384e-06
1.0682e-06
1.64732e-06
1.77485e-06
2.05381e-06
1.83357e-06
1.59512e-06
8.4293e-07
6.82395e-08
2.85648e-08
7.00884e-07
8.28793e-07
-7.16168e-07
-2.33745e-06
-6.55932e-06
1.58827e-06
1.43625e-05
1.51155e-05
-2.30233e-07
-3.12613e-06
4.04737e-06
2.94088e-06
2.26999e-06
-2.00547e-05
-4.38903e-06
-6.0635e-06
7.19356e-05
3.98549e-06
-4.39869e-06
1.22899e-06
-8.7224e-06
1.2504e-06
4.96936e-06
7.44545e-06
7.65127e-06
5.89603e-06
3.19004e-06
1.51895e-06
5.5354e-07
6.82006e-07
7.03596e-07
1.22798e-06
1.02694e-06
1.29291e-06
8.64211e-07
8.90879e-07
3.9394e-07
2.03951e-07
-3.19733e-07
-5.4718e-07
-1.07176e-06
-1.18255e-06
-1.27616e-06
-9.83428e-07
-1.88557e-06
-5.21748e-06
-1.41432e-06
-3.89602e-06
-2.87517e-06
-3.28284e-06
-1.3158e-06
-1.29724e-06
3.96069e-06
-5.76391e-06
5.27198e-06
2.22118e-06
5.39456e-06
3.27638e-06
3.7057e-06
4.34913e-07
2.11669e-06
2.78339e-06
2.25124e-06
3.45101e-06
3.36085e-06
2.66023e-06
1.59023e-06
1.15813e-06
8.16483e-07
1.21247e-06
1.43242e-06
2.00147e-06
2.21591e-06
2.6446e-06
2.87901e-06
2.95274e-06
2.91244e-06
3.1537e-06
3.64608e-06
4.03806e-06
4.81979e-06
5.05201e-06
3.9796e-06
2.63593e-06
6.53001e-07
-2.18431e-06
-4.20219e-06
-2.42955e-08
4.26109e-06
7.20885e-06
9.48893e-06
1.1377e-05
3.37367e-05
3.50754e-05
0.000114017
4.25666e-07
1.78589e-06
-8.58206e-06
8.11831e-07
-1.59722e-06
2.95238e-06
6.41883e-06
6.33581e-06
4.71738e-06
2.78513e-06
1.30223e-06
6.01429e-07
5.5403e-07
6.78519e-07
9.38466e-07
9.2393e-07
1.14554e-06
9.0685e-07
1.05124e-06
5.58679e-07
4.20966e-07
-3.22213e-07
-7.58987e-07
-1.69404e-06
-2.2189e-06
-2.83622e-06
-2.76802e-06
-2.81781e-06
-2.73818e-06
-1.90868e-06
-1.98541e-06
-1.44723e-06
-1.8974e-06
-2.66107e-06
-2.61578e-06
-3.10895e-06
-8.03322e-06
-5.27195e-06
-1.06367e-05
2.55193e-06
2.84834e-06
1.46536e-06
2.63725e-06
1.28341e-06
8.84194e-07
2.58148e-06
3.00317e-06
2.71902e-06
2.25074e-06
1.54124e-06
1.06061e-06
9.02536e-07
1.0309e-06
1.28074e-06
1.55661e-06
1.69319e-06
1.77407e-06
1.66134e-06
1.34388e-06
9.19289e-07
8.51114e-07
1.31982e-06
1.74274e-06
1.53454e-06
4.19288e-07
-2.55589e-06
3.29796e-07
8.64254e-06
1.02289e-05
1.04555e-06
-1.44193e-06
3.18793e-06
3.18726e-06
-2.34521e-07
-2.16918e-05
-9.67708e-07
-7.02132e-06
3.57481e-05
1.69486e-06
-4.42141e-06
1.68526e-06
-6.8061e-06
6.11016e-07
3.44655e-06
4.49064e-06
5.12012e-06
3.9478e-06
2.40941e-06
9.72847e-07
5.05759e-07
2.14069e-07
6.43782e-07
5.0422e-07
9.80571e-07
6.39968e-07
9.39784e-07
4.64905e-07
5.56738e-07
4.84925e-08
-2.86171e-09
-4.43478e-07
-5.93936e-07
-8.38744e-07
-7.65965e-07
-4.59968e-07
-1.01821e-06
-2.90892e-06
-9.39381e-07
-2.05946e-06
-2.01919e-06
-2.38381e-06
-1.64123e-06
-5.24385e-07
3.76264e-06
-5.50327e-06
4.71543e-06
4.52145e-06
4.45579e-06
2.58316e-06
2.66838e-06
6.02213e-07
7.76226e-07
1.86183e-06
1.55102e-06
1.99009e-06
2.57293e-06
1.94288e-06
1.42921e-06
8.52469e-07
8.52935e-07
8.03631e-07
1.20394e-06
1.34079e-06
1.73053e-06
1.88174e-06
2.21129e-06
2.33035e-06
2.34131e-06
2.50017e-06
2.79766e-06
3.14748e-06
3.54483e-06
3.38083e-06
2.41476e-06
1.60805e-06
7.90797e-07
-1.37385e-06
-2.82234e-06
-2.01356e-07
3.29423e-06
6.31296e-06
8.40057e-06
8.98787e-06
2.65854e-05
2.30115e-05
6.754e-05
1.8562e-07
1.49774e-06
-6.91491e-06
1.05369e-06
-1.47044e-06
1.06451e-06
4.14406e-06
4.23935e-06
3.26394e-06
1.92453e-06
9.27246e-07
3.89684e-07
3.70079e-07
4.06285e-07
5.5919e-07
6.50724e-07
6.66149e-07
7.53352e-07
5.88516e-07
5.85473e-07
1.55726e-07
-4.82607e-08
-7.37444e-07
-1.17365e-06
-1.90493e-06
-2.20741e-06
-2.49143e-06
-2.63968e-06
-2.76972e-06
-2.16721e-06
-2.11385e-06
-1.66405e-06
-1.84418e-06
-2.48084e-06
-2.5004e-06
-2.75119e-06
-6.56799e-06
-3.92879e-06
-9.10634e-06
2.1347e-06
2.19787e-06
1.18932e-06
1.41895e-06
1.02651e-06
2.73188e-07
1.5875e-06
2.32899e-06
1.95593e-06
1.7046e-06
1.08731e-06
8.43874e-07
5.88532e-07
7.91167e-07
8.84146e-07
1.19558e-06
1.30646e-06
1.47887e-06
1.51215e-06
1.44295e-06
1.25155e-06
1.20073e-06
1.49829e-06
1.93861e-06
2.19467e-06
1.57743e-06
-5.80976e-07
-6.05941e-08
4.69462e-06
5.86836e-06
9.4736e-07
-6.27952e-07
2.37073e-06
2.27656e-06
-2.73835e-06
-2.109e-05
1.17108e-06
-6.52541e-06
1.3004e-05
1.21781e-06
-3.31214e-06
1.75089e-06
-5.23034e-06
8.43193e-08
2.27344e-06
2.64192e-06
3.26776e-06
2.76467e-06
1.69344e-06
8.99588e-07
3.5947e-07
4.14466e-07
2.49067e-07
6.29927e-07
4.14411e-07
7.83968e-07
4.50209e-07
6.56419e-07
2.47533e-07
2.90137e-07
-8.20998e-08
-1.45569e-07
-4.34417e-07
-4.99106e-07
-4.74355e-07
-2.36553e-07
-4.33861e-07
-1.48928e-06
-2.98423e-07
-8.84038e-07
-8.55166e-07
-1.50411e-06
-1.26659e-06
2.58666e-07
3.22075e-06
-5.31415e-06
4.13858e-06
5.3146e-06
3.18498e-06
1.88278e-06
1.69363e-06
5.02735e-07
1.86107e-07
1.34826e-06
1.10169e-06
1.36521e-06
1.82396e-06
1.45032e-06
9.67148e-07
6.92228e-07
5.06607e-07
6.61115e-07
7.5748e-07
1.07044e-06
1.20865e-06
1.50717e-06
1.67134e-06
1.94207e-06
1.93012e-06
2.05012e-06
2.21661e-06
2.52214e-06
2.74019e-06
2.44689e-06
1.59159e-06
1.13879e-06
8.34223e-07
-5.53612e-07
-1.49813e-06
-4.13717e-08
2.47151e-06
5.08883e-06
6.80053e-06
6.6798e-06
1.97896e-05
1.41624e-05
3.7936e-05
4.55494e-07
1.40884e-06
-4.86166e-06
9.73696e-07
-1.243e-06
-7.2014e-09
2.6501e-06
2.77247e-06
2.26049e-06
1.38679e-06
7.39679e-07
4.26252e-07
2.85217e-07
3.77202e-07
3.82438e-07
4.98006e-07
5.02128e-07
5.04547e-07
5.28907e-07
3.46642e-07
2.80586e-07
-1.45561e-07
-4.15046e-07
-1.04886e-06
-1.41485e-06
-1.90159e-06
-2.07368e-06
-2.43758e-06
-2.5375e-06
-2.21649e-06
-2.11224e-06
-1.74263e-06
-1.83503e-06
-2.18091e-06
-2.30181e-06
-2.43141e-06
-5.3574e-06
-3.04383e-06
-7.30213e-06
1.63947e-06
1.37357e-06
8.68659e-07
8.75623e-07
8.48933e-07
1.1577e-08
1.17306e-06
1.65436e-06
1.4777e-06
1.15883e-06
8.94175e-07
4.50885e-07
5.0113e-07
4.13123e-07
7.10993e-07
7.91021e-07
1.06025e-06
1.14101e-06
1.3103e-06
1.32545e-06
1.27043e-06
1.24584e-06
1.39309e-06
1.75367e-06
2.05372e-06
1.72471e-06
2.74371e-07
-1.30811e-08
2.18448e-06
2.84664e-06
5.44846e-07
-5.04704e-07
1.1716e-06
8.5613e-07
-3.90646e-06
-2.12657e-05
4.56572e-06
-6.92222e-06
4.01997e-07
1.11057e-06
-1.9417e-06
1.64663e-06
-3.87913e-06
-2.80715e-07
1.32862e-06
1.48399e-06
2.2245e-06
1.93178e-06
1.38372e-06
7.36291e-07
5.27145e-07
2.38886e-07
4.29114e-07
2.6631e-07
5.48247e-07
3.41141e-07
5.83598e-07
2.7636e-07
3.84007e-07
4.63122e-08
6.25287e-08
-2.07687e-07
-2.33759e-07
-3.9153e-07
-3.05067e-07
-1.56077e-07
-2.21734e-07
-6.08823e-07
-4.37455e-08
-2.05679e-08
-2.01542e-07
-4.40958e-07
-7.25054e-07
8.31515e-07
2.90226e-06
-4.92775e-06
3.89175e-06
5.3268e-06
2.2781e-06
1.31543e-06
1.07665e-06
3.87887e-07
-7.88443e-08
1.14734e-06
8.22363e-07
1.06054e-06
1.44436e-06
1.14859e-06
7.8679e-07
4.95342e-07
4.23065e-07
4.24866e-07
6.28981e-07
7.53226e-07
1.01998e-06
1.15265e-06
1.42073e-06
1.57648e-06
1.71291e-06
1.72212e-06
1.87006e-06
2.07803e-06
2.2579e-06
1.97727e-06
1.35552e-06
1.05666e-06
9.30163e-07
1.58925e-07
-3.89858e-07
1.86181e-07
1.92771e-06
3.81746e-06
4.96877e-06
4.40844e-06
1.42867e-05
7.77491e-06
2.03209e-05
5.98226e-07
1.33324e-06
-3.36541e-06
7.90732e-07
-1.24761e-06
-2.82248e-07
1.68953e-06
1.92746e-06
1.558e-06
1.0448e-06
6.21234e-07
3.37885e-07
3.09595e-07
2.69704e-07
3.46482e-07
3.44912e-07
3.64482e-07
3.70829e-07
3.44351e-07
3.27602e-07
1.39188e-07
1.66018e-08
-4.03607e-07
-7.00986e-07
-1.21215e-06
-1.45467e-06
-1.81905e-06
-2.05717e-06
-2.27926e-06
-2.06287e-06
-2.02575e-06
-1.7023e-06
-1.78696e-06
-1.88518e-06
-1.99255e-06
-2.08132e-06
-4.42106e-06
-2.31305e-06
-5.5473e-06
1.04769e-06
6.07995e-07
6.24818e-07
4.92714e-07
8.20518e-07
4.19455e-08
1.05e-06
1.53189e-06
1.24739e-06
1.14158e-06
6.64763e-07
5.37003e-07
2.7413e-07
4.4677e-07
4.38817e-07
7.18404e-07
7.83107e-07
9.99855e-07
1.07927e-06
1.19313e-06
1.17489e-06
1.15404e-06
1.22652e-06
1.45622e-06
1.68158e-06
1.49862e-06
6.25201e-07
9.32093e-08
8.95455e-07
1.22892e-06
8.67466e-08
-5.26426e-07
-7.34177e-08
5.36811e-08
-5.43027e-06
-1.72534e-05
5.78172e-06
-6.6482e-06
-4.99463e-06
1.01855e-06
-1.03966e-06
1.42214e-06
-2.85455e-06
-2.18758e-07
6.97778e-07
1.02273e-06
1.52542e-06
1.47308e-06
9.87076e-07
6.77918e-07
3.22249e-07
3.6294e-07
1.56274e-07
4.23278e-07
1.6827e-07
4.58672e-07
2.26205e-07
3.86798e-07
8.68756e-08
1.16975e-07
-1.61105e-07
-1.39913e-07
-3.09917e-07
-2.81764e-07
-3.1524e-07
-1.65659e-07
-1.76278e-07
-2.67256e-07
9.70894e-08
2.52211e-07
2.40865e-07
1.6581e-07
-2.25865e-07
1.32845e-06
2.18754e-06
-4.1617e-06
3.39499e-06
4.33571e-06
1.37905e-06
1.00827e-06
5.8447e-07
3.38432e-07
-1.24305e-07
1.14193e-06
8.59557e-07
1.00264e-06
1.38797e-06
1.11974e-06
7.90333e-07
5.38077e-07
3.95015e-07
4.28698e-07
4.98385e-07
6.90366e-07
8.15338e-07
1.03291e-06
1.16774e-06
1.38687e-06
1.49098e-06
1.53177e-06
1.59535e-06
1.77227e-06
1.89581e-06
1.74825e-06
1.32167e-06
1.13655e-06
1.05324e-06
7.10689e-07
3.11321e-07
5.06277e-07
1.53683e-06
2.78253e-06
3.17911e-06
2.99794e-06
9.7351e-06
3.61276e-06
1.00584e-05
6.33994e-07
1.12363e-06
-2.19904e-06
6.5872e-07
-1.02005e-06
-1.75256e-07
1.11965e-06
1.28236e-06
1.05854e-06
7.18165e-07
3.98315e-07
2.77045e-07
1.682e-07
3.3732e-07
1.05219e-07
3.14242e-07
2.11464e-07
2.93246e-07
2.24147e-07
1.79192e-07
1.23678e-07
-6.0398e-08
-2.29737e-07
-6.01393e-07
-8.67352e-07
-1.20874e-06
-1.43767e-06
-1.7518e-06
-1.89298e-06
-1.86419e-06
-1.80697e-06
-1.60944e-06
-1.66563e-06
-1.63166e-06
-1.63686e-06
-1.81903e-06
-3.61811e-06
-1.61985e-06
-4.06587e-06
7.34038e-07
1.46531e-07
4.42061e-07
3.66569e-07
9.00446e-07
2.6603e-08
1.09705e-06
1.43027e-06
1.2943e-06
1.06696e-06
8.84735e-07
4.88718e-07
4.78855e-07
3.30531e-07
5.27745e-07
5.45196e-07
7.6825e-07
8.15316e-07
9.8836e-07
1.03234e-06
1.08556e-06
1.03109e-06
1.07443e-06
1.19783e-06
1.34637e-06
1.22503e-06
7.28771e-07
2.28369e-07
4.26434e-07
4.47784e-07
-3.69503e-08
-6.8427e-07
-3.91692e-07
-8.83257e-07
-4.88887e-06
-1.30971e-05
6.37907e-06
-7.11365e-06
-7.60254e-06
8.56693e-07
-4.48067e-07
1.17501e-06
-1.98233e-06
-1.03485e-07
3.0848e-07
6.72693e-07
1.1397e-06
9.63734e-07
7.36195e-07
3.79978e-07
3.00366e-07
2.25547e-07
1.20768e-07
1.45913e-07
1.9429e-07
1.18443e-07
3.27914e-07
1.62482e-07
2.02575e-07
-8.65775e-08
-1.18937e-07
-3.24376e-07
-2.75387e-07
-3.83038e-07
-2.90093e-07
-3.0227e-07
-1.81296e-07
-2.3446e-07
1.04427e-07
1.93713e-07
4.14648e-07
2.52504e-07
2.33589e-07
1.19749e-06
1.66824e-06
-3.28754e-06
3.30934e-06
3.65082e-06
9.32828e-07
7.44413e-07
3.55769e-07
3.45207e-07
-2.59066e-07
1.26434e-06
8.37667e-07
9.18996e-07
1.39199e-06
1.20432e-06
9.04416e-07
6.67862e-07
4.83203e-07
4.60031e-07
5.01445e-07
6.16871e-07
7.44945e-07
8.84541e-07
1.02615e-06
1.16998e-06
1.31641e-06
1.32673e-06
1.38084e-06
1.47932e-06
1.59452e-06
1.52173e-06
1.30191e-06
1.17069e-06
1.15064e-06
9.84901e-07
7.45504e-07
7.35046e-07
1.35714e-06
1.9858e-06
1.91045e-06
2.08799e-06
6.52743e-06
1.10307e-06
4.3442e-06
5.43995e-07
9.19338e-07
-1.41227e-06
5.30176e-07
-8.3364e-07
1.09936e-08
7.7316e-07
8.01988e-07
6.8664e-07
3.94881e-07
2.57267e-07
1.8331e-07
1.03556e-07
1.46768e-07
5.28419e-10
-8.11162e-08
4.01654e-07
9.93396e-08
1.98709e-07
8.94027e-08
3.90005e-08
-6.59041e-08
-2.25035e-07
-4.42702e-07
-6.87531e-07
-9.14001e-07
-1.15052e-06
-1.38225e-06
-1.54478e-06
-1.56281e-06
-1.5665e-06
-1.42571e-06
-1.52951e-06
-1.37608e-06
-1.3911e-06
-1.57273e-06
-2.90245e-06
-9.97388e-07
-2.93698e-06
4.25692e-07
-1.98527e-07
3.42351e-07
1.56381e-07
1.04526e-06
6.50005e-08
9.98383e-07
1.55047e-06
1.20979e-06
1.22475e-06
8.92311e-07
7.24822e-07
4.69504e-07
4.88329e-07
4.44378e-07
5.9296e-07
6.37452e-07
7.76679e-07
8.30618e-07
9.36178e-07
9.42333e-07
9.30532e-07
9.24598e-07
1.01687e-06
1.07856e-06
1.02412e-06
7.13282e-07
3.84765e-07
2.97644e-07
2.47412e-07
-9.04952e-08
-4.8163e-07
-5.01862e-07
-9.01481e-07
-3.96233e-06
-8.2364e-06
6.03755e-06
-6.74176e-06
-7.77411e-06
7.05562e-07
-1.09738e-07
9.33657e-07
-1.3252e-06
4.39698e-08
1.13982e-07
5.56016e-07
7.55917e-07
6.54569e-07
4.4248e-07
3.00323e-07
1.15121e-07
2.12358e-07
-1.25775e-07
-1.99866e-07
4.4829e-07
7.33714e-08
1.6487e-07
6.555e-08
3.48528e-08
-1.65597e-08
-2.462e-07
-3.09442e-07
-4.2103e-07
-3.74309e-07
-4.1714e-07
-3.31047e-07
-3.21614e-07
-2.26631e-07
-6.334e-08
1.03452e-07
2.66077e-07
2.18491e-07
2.70324e-07
9.67305e-07
1.02891e-06
-2.27378e-06
2.89524e-06
2.65171e-06
4.59364e-07
6.22532e-07
1.06013e-07
3.7711e-07
-2.9802e-07
1.26976e-06
9.01976e-07
7.96803e-07
1.3893e-06
1.21293e-06
1e-06
7.16508e-07
5.80163e-07
4.66093e-07
5.10717e-07
5.51839e-07
6.65643e-07
7.53362e-07
8.66568e-07
9.67197e-07
1.08726e-06
1.12385e-06
1.14871e-06
1.20533e-06
1.2767e-06
1.27337e-06
1.17207e-06
1.12246e-06
1.11308e-06
1.06955e-06
9.11039e-07
9.07093e-07
1.22577e-06
1.4826e-06
1.14154e-06
1.8267e-06
4.49948e-06
-5.08287e-08
1.50767e-06
4.6624e-07
7.11821e-07
-8.35628e-07
4.30085e-07
-5.78142e-07
1.94695e-07
4.7078e-07
4.95837e-07
3.88117e-07
2.3794e-07
1.16243e-07
2.03321e-07
-9.48597e-08
-2.44224e-07
3.45383e-07
1.13094e-07
3.02672e-07
-8.584e-08
3.25025e-08
-7.88519e-08
-1.05791e-07
-1.30234e-07
-2.43158e-07
-3.77973e-07
-5.50228e-07
-7.0561e-07
-8.78543e-07
-1.06464e-06
-1.19109e-06
-1.2644e-06
-1.2756e-06
-1.24249e-06
-1.32741e-06
-1.19365e-06
-1.18559e-06
-1.4173e-06
-2.28408e-06
-6.31198e-07
-2.2447e-06
2.97044e-07
-3.6047e-07
2.37177e-07
9.55266e-08
1.09656e-06
-3.66977e-08
9.25174e-07
1.41936e-06
1.16029e-06
1.10908e-06
9.55415e-07
7.0438e-07
5.6023e-07
4.54109e-07
4.73336e-07
5.05487e-07
5.91546e-07
6.47054e-07
7.2091e-07
7.76079e-07
8.09313e-07
7.90787e-07
7.96187e-07
8.41387e-07
8.90697e-07
8.44198e-07
6.8148e-07
4.60751e-07
3.38751e-07
2.16613e-07
2.95483e-08
-2.77027e-07
-2.82431e-07
-7.32669e-07
-2.76998e-06
-4.05446e-06
5.16522e-06
-6.27875e-06
-7.15654e-06
5.5433e-07
8.66605e-08
7.38937e-07
-8.01591e-07
1.30222e-07
-2.73497e-08
3.96719e-07
5.02105e-07
4.28449e-07
3.01984e-07
2.44723e-07
5.49865e-08
-1.40858e-07
3.06778e-07
3.09807e-08
5.72557e-07
6.28713e-09
1.54128e-07
-2.25793e-07
-3.7746e-08
-1.90345e-07
-2.45764e-07
-3.84589e-07
-4.30119e-07
-4.63681e-07
-4.39458e-07
-4.22181e-07
-3.67364e-07
-3.12689e-07
-1.67053e-07
-7.39203e-08
1.09951e-07
1.66319e-08
2.45648e-07
6.16079e-07
5.48534e-07
-1.49545e-06
2.44495e-06
1.99726e-06
2.88695e-07
4.51764e-07
2.61646e-08
3.70191e-07
-4.3848e-07
1.25778e-06
7.78366e-07
6.1888e-07
1.23171e-06
1.12091e-06
9.24728e-07
7.2696e-07
5.39905e-07
4.70437e-07
4.43274e-07
4.92962e-07
5.45308e-07
6.20137e-07
6.88137e-07
7.60873e-07
8.47057e-07
9.01501e-07
9.13191e-07
9.33841e-07
9.71565e-07
9.90923e-07
9.72252e-07
9.64182e-07
9.84019e-07
9.93569e-07
9.20202e-07
9.47815e-07
1.10854e-06
1.11359e-06
8.32839e-07
1.79872e-06
3.24635e-06
-4.25271e-07
2.92057e-07
3.58248e-07
5.59459e-07
-4.35525e-07
3.52432e-07
-4.12396e-07
2.47267e-07
2.57171e-07
2.91869e-07
2.20399e-07
1.43081e-07
1.14525e-07
3.87636e-08
1.86606e-07
-5.70445e-08
5.77147e-07
2.22433e-07
2.14917e-07
-1.74619e-07
-4.43613e-08
-1.78143e-07
-3.04181e-07
-2.70269e-07
-2.72973e-07
-3.63814e-07
-4.64404e-07
-5.62023e-07
-6.65465e-07
-7.9348e-07
-8.8793e-07
-9.76321e-07
-1.00237e-06
-1.04501e-06
-1.11204e-06
-1.0205e-06
-1.03472e-06
-1.28368e-06
-1.78059e-06
-4.75232e-07
-1.84178e-06
1.31519e-07
-4.80012e-07
1.6906e-07
-5.99974e-08
1.09949e-06
-6.02012e-08
7.31657e-07
1.35909e-06
9.35724e-07
9.86682e-07
8.29534e-07
6.54102e-07
5.06921e-07
4.22408e-07
4.06161e-07
4.33569e-07
4.80061e-07
5.27296e-07
5.68432e-07
6.17053e-07
6.46614e-07
6.44879e-07
6.42278e-07
6.7857e-07
7.11931e-07
6.94277e-07
6.05065e-07
4.82018e-07
3.71272e-07
2.69168e-07
1.29305e-07
-5.84365e-08
-9.67104e-08
-5.38926e-07
-1.63702e-06
-1.49645e-06
4.03016e-06
-5.16807e-06
-5.92616e-06
4.41858e-07
2.05857e-07
5.87745e-07
-4.48044e-07
1.64258e-07
-1.15819e-07
2.63548e-07
3.40999e-07
2.76675e-07
2.26553e-07
1.90941e-07
9.28716e-08
8.17426e-09
4.01457e-07
2.97097e-07
1.74417e-07
2.85404e-08
-3.40901e-09
-3.30957e-08
-3.93093e-07
-3.30944e-07
-2.8853e-07
-3.68854e-07
-4.39053e-07
-4.64821e-07
-4.63625e-07
-4.36046e-07
-4.01866e-07
-3.43835e-07
-2.6135e-07
-1.77958e-07
-6.51439e-08
-1.02966e-07
1.54718e-07
3.34313e-07
2.42311e-07
-9.1747e-07
1.86351e-06
1.43248e-06
4.75256e-08
3.6219e-07
-1.2401e-07
3.44649e-07
-4.35919e-07
1.12427e-06
7.52963e-07
4.39408e-07
1.04505e-06
9.55065e-07
7.86183e-07
6.20509e-07
4.7674e-07
3.94206e-07
3.71667e-07
3.88598e-07
4.26221e-07
4.67775e-07
5.1491e-07
5.59305e-07
6.19779e-07
6.77504e-07
6.8581e-07
6.85881e-07
6.97927e-07
7.21157e-07
7.3827e-07
7.55457e-07
7.97808e-07
8.27345e-07
8.20723e-07
8.72399e-07
9.36136e-07
8.43463e-07
7.30138e-07
1.72637e-06
2.44838e-06
-3.78189e-07
6.86201e-09
2.948e-07
4.40123e-07
-1.68109e-07
2.89598e-07
-2.71194e-07
2.10047e-07
1.35362e-07
1.37312e-07
1.33183e-07
8.5707e-08
1.0296e-07
3.4093e-08
1.74226e-07
1.86575e-07
2.53147e-07
9.43102e-08
3.28782e-08
5.87474e-08
-3.71363e-07
-3.88418e-07
-2.78425e-07
-3.05701e-07
-3.13767e-07
-3.58677e-07
-4.1409e-07
-4.56634e-07
-5.10728e-07
-5.79898e-07
-6.4895e-07
-7.24153e-07
-7.64627e-07
-8.43744e-07
-8.87019e-07
-8.58571e-07
-8.96695e-07
-1.14205e-06
-1.39069e-06
-4.9609e-07
-1.63511e-06
7.40357e-08
-5.11119e-07
7.98176e-08
-7.81093e-08
1.00277e-06
-1.29056e-07
6.15938e-07
1.13903e-06
7.79023e-07
7.72772e-07
6.79869e-07
5.35843e-07
4.15637e-07
3.41624e-07
3.19045e-07
3.32844e-07
3.61293e-07
3.92214e-07
4.17476e-07
4.51938e-07
4.83599e-07
4.86534e-07
4.84719e-07
5.11698e-07
5.44813e-07
5.45679e-07
5.05853e-07
4.45688e-07
3.71936e-07
2.97545e-07
1.9424e-07
8.30031e-08
-5.32983e-10
-3.63972e-07
-8.52953e-07
-1.69323e-07
2.92169e-06
-3.89334e-06
-4.47028e-06