/*--------------------------------*- C++ -*----------------------------------*\
| =========                 |                                                 |
| \\      /  F ield         | OpenFOAM: The Open Source CFD Toolbox           |
|  \\    /   O peration     | Version:  2312                                  |
|   \\  /    A nd           | Website:  www.openfoam.com                      |
|    \\/     M anipulation  |                                                 |
\*---------------------------------------------------------------------------*/
FoamFile
{
    version     2.0;
    format      ascii;
    arch        "LSB;label=32;scalar=64";
    class       volVectorField;
    location    "200";
    object      momentError;
}
// * * * * * * * * * * * * * * * * * * * * * * * * * * * * * * * * * * * * * //

dimensions      [0 1 -2 0 0 0 0];

internalField   nonuniform List<vector> 
10720
(
(0.193785 -0.743193 -4.02052e-15)
(0.135443 -0.729425 -2.42556e-15)
(0.0122972 -0.610774 -2.14814e-14)
(-0.038972 -0.579608 9.90403e-14)
(-0.0749791 -0.520232 7.41291e-14)
(-0.0995999 -0.458634 -1.83534e-13)
(-0.118822 -0.399492 -1.3874e-13)
(-0.125174 -0.334223 -1.07038e-13)
(-0.122544 -0.276643 2.14107e-14)
(-0.114004 -0.221105 5.45171e-15)
(-0.101584 -0.18468 -1.56074e-14)
(-0.0613675 -0.110611 6.72059e-14)
(-0.0311044 -0.0643747 -2.18768e-13)
(-0.00502262 -0.0257181 -4.00262e-13)
(0.0253401 0.00948975 7.41514e-14)
(0.0571643 0.0409799 -1.05873e-13)
(0.09415 0.0676689 1.15322e-13)
(0.137621 0.0896766 8.85791e-13)
(0.189082 0.107615 2.34744e-13)
(0.247264 0.117784 -4.67419e-13)
(0.294393 0.120251 -2.30829e-13)
(0.312239 0.100836 9.48771e-14)
(0.229387 0.0659543 3.41258e-13)
(0.137415 0.0457405 -2.49746e-13)
(0.103536 0.0261182 4.6492e-14)
(0.0613099 0.00292316 -4.01842e-14)
(0.0492965 -0.0068254 -6.95348e-14)
(0.0476559 -0.00937026 1.30023e-14)
(0.0495903 -0.00817497 1.01592e-14)
(0.0533859 -0.00643264 2.10401e-13)
(0.0535314 -0.00517445 1.5599e-13)
(0.0463207 -0.00406398 -1.77785e-13)
(0.041951 -0.00395599 -1.33478e-13)
(0.0375593 -0.00415631 -2.40598e-13)
(0.0328653 -0.00411901 -1.61198e-13)
(0.0284599 -0.0028594 1.5566e-13)
(0.0289091 0.00775171 -1.09072e-14)
(0.077491 0.0753954 -5.67999e-16)
(1.1588 -0.128957 -6.54216e-14)
(0.21966 -0.694593 8.26526e-15)
(0.233356 -0.561246 -2.01963e-14)
(0.229359 -0.418713 2.30902e-14)
(0.195018 -0.305032 1.04852e-13)
(0.160504 -0.21499 3.65082e-14)
(0.121082 -0.119071 -2.85944e-13)
(0.0496022 -0.0303051 -1.53839e-13)
(0.00241784 0.00928855 1.60161e-13)
(0.0159039 -0.0143975 -6.42629e-14)
(0.0535012 -0.047307 5.92316e-14)
(0.0605692 -0.0403333 -8.04788e-14)
(0.05165 -0.0288772 -1.37775e-13)
(0.0479328 -0.024649 3.59486e-14)
(0.0461709 -0.0211986 7.0926e-14)
(0.041687 -0.0170934 -1.17085e-13)
(0.0366039 -0.0139829 -1.01201e-13)
(0.0326535 -0.0117426 -7.21977e-14)
(0.0292835 -0.0099439 -8.83015e-14)
(0.0262088 -0.00840356 -3.25271e-14)
(0.0234336 -0.00712895 -2.81579e-15)
(0.0210345 -0.0060242 3.09179e-14)
(0.0189152 -0.00509509 6.23942e-14)
(0.0170828 -0.00426452 -2.97482e-14)
(0.0154345 -0.00356565 -2.11734e-14)
(0.0138042 -0.00279818 2.56254e-14)
(0.0121231 -0.00246984 -4.00665e-15)
(0.0108076 -0.00208684 -9.65708e-16)
(0.00998795 -0.000739967 -2.00635e-15)
(0.00922462 0.000307126 4.58841e-16)
(0.00856276 0.000466246 1.22508e-16)
(0.00757243 0.000466082 5.29406e-16)
(0.00690304 0.000532984 -1.35006e-15)
(0.00628255 0.000599926 -2.54452e-15)
(0.00570743 0.000630728 -4.26167e-15)
(0.00517124 0.000633987 -5.53939e-15)
(0.00455704 0.000603381 -2.26525e-15)
(0.00410754 0.000583648 1.28444e-14)
(0.00374217 0.000205118 -3.39161e-15)
(0.00250755 -0.000536842 -5.85984e-14)
(-0.0489857 -0.530702 -3.92323e-15)
(-0.10669 -0.527188 2.26868e-15)
(-0.149138 -0.44364 -1.0901e-16)
(-0.204754 -0.427118 -7.49261e-15)
(-0.239327 -0.39373 9.90215e-15)
(-0.261325 -0.355414 6.66534e-14)
(-0.28356 -0.314225 7.9746e-14)
(-0.2928 -0.271437 2.64028e-14)
(-0.290767 -0.230429 -8.5758e-14)
(-0.286192 -0.194478 -4.15757e-14)
(-0.269834 -0.153625 -2.55495e-13)
(-0.268069 -0.170621 -4.70405e-13)
(-0.261712 -0.168518 -2.35146e-14)
(-0.25765 -0.153394 -2.06097e-14)
(-0.233565 -0.149328 -8.27129e-14)
(-0.212848 -0.144375 8.6339e-14)
(-0.18819 -0.143896 3.88147e-13)
(-0.156473 -0.144352 -6.87105e-13)
(-0.110481 -0.14537 -5.70669e-13)
(-0.0372881 -0.142709 -3.58491e-13)
(0.0580849 -0.123618 2.16982e-13)
(0.208945 -0.0866363 2.92256e-13)
(0.386399 -0.00930829 -3.83401e-13)
(0.441911 0.0383996 5.94925e-14)
(0.326511 0.0252555 -2.11372e-15)
(0.246051 0.0112156 -1.12464e-14)
(0.221056 0.00792919 -4.08605e-15)
(0.180771 0.000371124 1.23103e-14)
(0.125545 -0.00376575 -2.76273e-14)
(0.0805019 -0.00635847 -1.10431e-14)
(0.0566812 -0.00875471 8.99051e-15)
(0.055115 -0.0100864 -5.36946e-15)
(0.0569964 -0.0100234 -1.14717e-13)
(0.0560946 -0.00917308 -7.15152e-14)
(0.0536987 -0.00843874 1.6049e-13)
(0.0501053 -0.00801279 2.89338e-14)
(0.0504207 -0.00684888 6.4739e-14)
(0.0136144 0.00530346 -1.18406e-14)
(-0.888074 0.105222 -3.3915e-14)
(-0.0107825 -0.49964 -1.64772e-14)
(0.0359248 -0.419117 1.51019e-13)
(0.0718524 -0.327463 -4.74072e-14)
(0.0858173 -0.254372 -1.16318e-13)
(0.0912072 -0.185389 8.26991e-14)
(0.084921 -0.115169 6.77217e-14)
(0.0549455 -0.0533583 2.4121e-14)
(0.0329536 -0.0266501 1.54607e-13)
(0.039211 -0.0346483 9.30913e-16)
(0.0577562 -0.0428133 -4.50365e-14)
(0.0650776 -0.0322919 7.2744e-14)
(0.0618818 -0.0236995 -9.50371e-14)
(0.0584406 -0.0193145 2.01353e-14)
(0.0554815 -0.014524 1.03758e-14)
(0.0507892 -0.0100999 2.45725e-14)
(0.0453688 -0.00745252 2.75769e-14)
(0.0407436 -0.00573444 4.68755e-14)
(0.0367442 -0.00446541 -1.40027e-14)
(0.033139 -0.00345581 3.02761e-15)
(0.0298907 -0.00270713 -6.99519e-15)
(0.0270539 -0.0020575 1.82105e-14)
(0.024539 -0.0015278 5.28035e-14)
(0.0223129 -0.00103681 -8.9631e-16)
(0.020244 -0.000517584 -1.75309e-14)
(0.018246 0.000138217 -1.48831e-14)
(0.0162922 0.000719536 2.12144e-14)
(0.0144652 0.00103018 6.08317e-15)
(0.0129629 0.00114172 -1.59076e-15)
(0.0117264 0.00100297 4.66675e-17)
(0.0105007 0.000827434 -1.04671e-16)
(0.00979818 0.000693685 -1.98891e-16)
(0.0089474 0.000756332 -4.6317e-16)
(0.00811695 0.000815979 2.22275e-15)
(0.0073474 0.000838921 2.5486e-15)
(0.00664937 0.000840028 2.78519e-15)
(0.00616006 0.000824154 -7.48668e-15)
(0.00548923 0.000778502 8.1057e-16)
(0.00549895 0.000786415 1.3377e-14)
(0.00424767 0.00123519 1.58037e-14)
(0.0425514 -0.428747 2.09412e-15)
(0.0116023 -0.424095 -1.24137e-15)
(-0.0272896 -0.360516 -2.50069e-15)
(-0.0604616 -0.360645 1.07256e-15)
(-0.0820523 -0.343522 5.71975e-14)
(-0.100626 -0.316745 -6.38288e-14)
(-0.118258 -0.291199 -8.74056e-14)
(-0.128498 -0.262657 1.5947e-13)
(-0.13256 -0.231647 6.52675e-14)
(-0.133167 -0.202268 8.85338e-14)
(-0.129012 -0.174373 2.03747e-14)
(-0.12133 -0.144811 -6.60095e-16)
(-0.113143 -0.115435 3.54472e-13)
(-0.101319 -0.0930517 1.19361e-14)
(-0.102749 -0.0698531 2.16094e-13)
(-0.111002 -0.0507789 9.78035e-16)
(-0.118816 -0.0409508 -6.82651e-13)
(-0.13167 -0.0374287 4.11492e-13)
(-0.156184 -0.0413944 9.19212e-13)
(-0.199165 -0.0567573 1.65874e-13)
(-0.241119 -0.0928852 -2.79299e-14)
(-0.291253 -0.105358 -6.57285e-14)
(-0.297744 -0.100733 1.63595e-13)
(-0.209653 -0.0517994 1.19258e-13)
(-0.0477816 0.00188324 -9.77811e-14)
(0.0626272 0.0289408 -2.17685e-14)
(0.0781126 0.0217048 -5.62736e-14)
(0.124437 0.00850024 3.09089e-14)
(0.145129 0.00288018 -2.80679e-14)
(0.158166 -0.000391321 -1.57059e-13)
(0.146571 -0.00483422 -8.0914e-15)
(0.116533 -0.00845091 2.38275e-13)
(0.0838265 -0.0104567 3.64186e-14)
(0.063462 -0.0108017 1.11474e-13)
(0.056863 -0.0102104 1.35675e-13)
(0.0545553 -0.00979266 2.19077e-14)
(0.0553977 -0.00955331 -8.62953e-14)
(0.0392357 -0.00884423 8.6134e-15)
(-0.0499236 -0.00291022 1.70022e-14)
(0.0654153 -0.406842 2.44552e-14)
(0.0799012 -0.34545 -3.72998e-14)
(0.0888261 -0.270102 -4.68686e-14)
(0.0917301 -0.215927 -1.29706e-14)
(0.0868717 -0.163108 1.12338e-14)
(0.0754159 -0.110112 -1.20461e-13)
(0.056075 -0.0616235 2.4032e-14)
(0.0462758 -0.0447571 -1.49475e-13)
(0.0542781 -0.048498 -1.25226e-13)
(0.0644157 -0.0479874 -1.1561e-13)
(0.0679768 -0.0408991 1.18084e-13)
(0.0650587 -0.0344061 1.04076e-13)
(0.0607318 -0.0292156 -6.46248e-14)
(0.0564667 -0.023909 -1.48288e-13)
(0.0514465 -0.0192402 4.05313e-14)
(0.0459468 -0.0158276 6.9743e-14)
(0.0410023 -0.0132229 -1.89495e-14)
(0.0367519 -0.0110754 -9.24041e-14)
(0.0329922 -0.00929509 -2.67612e-14)
(0.0296422 -0.00783574 2.54421e-15)
(0.0267326 -0.0065781 -2.06133e-14)
(0.0241752 -0.00549001 -4.12479e-14)
(0.0218886 -0.00449694 9.09328e-15)
(0.0197394 -0.00353865 -6.41238e-16)
(0.0176736 -0.00256879 2.83387e-15)
(0.0156805 -0.0017856 -9.58633e-15)
(0.0138307 -0.0013025 -1.76677e-14)
(0.0122508 -0.000907126 3.92862e-15)
(0.0109105 -0.000475155 7.4284e-16)
(0.00972989 -9.95793e-05 -1.86876e-16)
(0.00878686 0.000332669 1.16096e-16)
(0.00800566 0.000558776 5.20426e-16)
(0.00728738 0.000686808 -7.90762e-16)
(0.00662006 0.000756512 -1.48657e-15)
(0.00602258 0.000769169 6.48641e-16)
(0.0055176 0.00070091 -1.15929e-15)
(0.00505956 0.000722207 8.78222e-15)
(0.00487894 0.00072089 8.17136e-15)
(0.00426052 0.00111874 -8.34927e-14)
(-0.00665986 -0.340614 1.05749e-14)
(-0.0360776 -0.336106 2.86379e-15)
(-0.0623781 -0.289318 1.02621e-15)
(-0.0937368 -0.290226 -6.49207e-15)
(-0.114286 -0.274408 9.64392e-16)
(-0.132387 -0.252337 -1.44117e-14)
(-0.150273 -0.231376 1.03517e-13)
(-0.1609 -0.206828 3.05482e-14)
(-0.16637 -0.180439 -2.51375e-13)
(-0.168509 -0.155089 8.46527e-14)
(-0.165565 -0.130096 2.71003e-13)
(-0.159042 -0.106726 3.4037e-13)
(-0.14866 -0.0883845 7.85403e-14)
(-0.136321 -0.0753082 -3.84249e-13)
(-0.127448 -0.0622555 -9.75824e-14)
(-0.105195 -0.0633262 -9.8585e-14)
(-0.0900462 -0.0604113 -1.7873e-13)
(-0.0753964 -0.0599276 -3.62043e-13)
(-0.063655 -0.0621617 -6.29018e-13)
(-0.0595328 -0.0698876 1.58957e-13)
(-0.0712841 -0.0742437 -1.26544e-13)
(-0.11816 -0.0875772 -1.78613e-13)
(-0.176417 -0.0770981 2.2442e-15)
(-0.214905 -0.0519708 -2.51776e-13)
(-0.200864 -0.021598 -4.63839e-14)
(-0.145011 -0.00469488 4.39268e-14)
(-0.0398596 -0.0143528 5.27691e-14)
(-0.107217 -0.00407525 -2.40927e-14)
(-0.0797149 0.0032017 3.36098e-14)
(-0.0704846 0.00834096 6.53176e-14)
(0.0326753 -0.00348091 -5.72099e-14)
(0.072397 -0.00425697 1.14125e-14)
(0.106154 -0.00822745 1.78885e-13)
(0.0918595 -0.0103024 8.29589e-14)
(0.0742841 -0.0104031 -3.34862e-14)
(0.0614288 -0.0109208 -1.09285e-13)
(0.0605962 -0.0117685 -2.72346e-14)
(0.0557598 -0.0132241 -2.03521e-14)
(0.0366462 -0.00485849 5.60454e-14)
(0.0181765 -0.323774 -1.80039e-15)
(0.0390974 -0.281762 -3.90865e-14)
(0.0557148 -0.226275 -3.46789e-14)
(0.0659994 -0.186716 -2.8453e-14)
(0.0690338 -0.145342 1.14695e-13)
(0.064482 -0.103156 2.05562e-13)
(0.0534806 -0.0662588 1.19438e-14)
(0.0505957 -0.0554813 1.41948e-13)
(0.0613221 -0.0577782 1.8813e-16)
(0.06716 -0.052815 -3.14864e-14)
(0.0692321 -0.0445732 -8.98086e-14)
(0.0673295 -0.0366409 -2.99278e-14)
(0.0633988 -0.0297451 -1.5672e-14)
(0.058972 -0.0235547 7.43969e-14)
(0.0540628 -0.0182382 -3.90447e-14)
(0.0487249 -0.0140769 -1.32026e-13)
(0.0437286 -0.0109443 -1.68164e-14)
(0.0392884 -0.00852101 8.6132e-14)
(0.0353267 -0.00663549 -2.61098e-15)
(0.0317597 -0.00517726 -2.43027e-14)
(0.0286288 -0.00401634 -6.54408e-14)
(0.0258465 -0.0030693 2.67124e-14)
(0.0233165 -0.00225831 3.50913e-14)
(0.0209184 -0.00151042 -6.05804e-15)
(0.0186425 -0.000759897 -2.74764e-15)
(0.0165129 -0.00013287 5.96344e-15)
(0.0145488 0.000273298 8.5735e-15)
(0.0128275 0.000582766 -2.00612e-15)
(0.0113202 0.000817988 -7.31761e-16)
(0.0099875 0.000941809 1.8886e-16)
(0.00885192 0.000905698 -1.1711e-16)
(0.00798091 0.000873885 -1.95576e-16)
(0.00722091 0.000863675 5.82109e-17)
(0.0064883 0.000711858 -2.38571e-16)
(0.00518622 -0.00148391 -1.99008e-15)
(0.00484912 -0.00105294 1.47371e-14)
(0.00468218 0.000495237 -2.2203e-14)
(0.00471336 0.00137634 -5.56089e-14)
(0.00421887 0.00111164 -3.06241e-14)
(0.00699818 -0.284172 -8.98017e-15)
(-0.0136796 -0.280491 4.89108e-15)
(-0.0334813 -0.244751 4.01421e-15)
(-0.056935 -0.24945 -1.70831e-14)
(-0.0722681 -0.239341 -1.43503e-14)
(-0.0862659 -0.223721 3.47403e-14)
(-0.100711 -0.210621 -1.29395e-14)
(-0.109418 -0.193597 1.3804e-14)
(-0.114765 -0.174395 -9.36414e-14)
(-0.117466 -0.1557 -2.86071e-13)
(-0.116056 -0.136748 -1.02683e-14)
(-0.111819 -0.118706 -1.24992e-13)
(-0.105049 -0.102657 -8.08779e-14)
(-0.0973914 -0.0882805 -1.4442e-14)
(-0.0886126 -0.0762183 -3.29262e-13)
(-0.0827059 -0.0613223 2.99269e-13)
(-0.0796823 -0.0481217 1.71675e-13)
(-0.0760529 -0.0398867 -3.85657e-13)
(-0.0718404 -0.0353235 1.22215e-13)
(-0.0681338 -0.0337445 -2.00783e-13)
(-0.0668919 -0.0345653 -1.39275e-13)
(-0.0724271 -0.0347993 2.51127e-13)
(-0.0863444 -0.0289946 6.30798e-15)
(-0.108215 -0.0156718 2.21274e-13)
(-0.126683 6.84974e-05 1.0095e-13)
(-0.139956 0.0134565 -2.04958e-14)
(-0.171178 0.0209761 6.2216e-15)
(-0.0867392 0.00484624 2.47076e-14)
(-0.0897412 9.43779e-05 -3.01512e-14)
(-0.0884672 0.00539013 -5.40457e-14)
(-0.0827142 0.0088777 2.21603e-14)
(-0.08265 0.00349973 -5.30907e-14)
(-0.0595678 0.00713218 -4.02296e-14)
(0.0437772 -0.00841552 -1.49308e-13)
(0.0581941 -0.00541265 -2.43044e-13)
(0.0669587 -0.010252 4.20728e-14)
(0.067458 -0.012538 -1.13379e-14)
(0.0637052 -0.0154108 -9.66036e-15)
(0.0547076 -0.00586704 -1.97405e-14)
(0.0245179 -0.270103 2.01115e-14)
(0.0379993 -0.237599 3.82961e-14)
(0.048845 -0.192837 -5.03927e-14)
(0.056634 -0.162007 -1.97155e-14)
(0.0597052 -0.129124 7.41578e-14)
(0.0569831 -0.0954994 -1.50764e-13)
(0.0526683 -0.0713251 -9.97933e-14)
(0.0545266 -0.0635664 2.04124e-13)
(0.0632321 -0.0616192 1.92509e-13)
(0.0676733 -0.0553024 -8.1076e-15)
(0.0689312 -0.0474024 -5.57724e-14)
(0.0673371 -0.0396769 -3.49078e-14)
(0.0636706 -0.0327465 1.17163e-13)
(0.0592484 -0.0266646 -5.78928e-14)
(0.0544601 -0.021465 -1.29935e-14)
(0.0492719 -0.0172254 9.80947e-14)
(0.0443228 -0.0139505 -4.43116e-14)
(0.0398035 -0.0113753 4.06239e-14)
(0.0357558 -0.00931391 2.43271e-14)
(0.0320924 -0.00765136 4.23498e-15)
(0.028859 -0.00628628 6.81459e-14)
(0.0259805 -0.00512835 -2.5536e-14)
(0.0233543 -0.0041051 -4.75383e-14)
(0.0208587 -0.00315203 -7.60216e-15)
(0.0185164 -0.00224974 1.89866e-14)
(0.0163629 -0.00149521 6.40971e-16)
(0.0143892 -0.000961667 9.18083e-15)
(0.012653 -0.000569146 -1.72214e-15)
(0.0111362 -0.000258586 1.08416e-16)
(0.00979459 -4.08791e-05 -2.66628e-16)
(0.00860448 0.000102606 -4.89471e-16)
(0.00767592 0.000345665 5.16084e-17)
(0.00689216 0.000487562 1.3751e-17)
(0.00617276 0.000857878 3.98068e-16)
(0.0057841 0.00409852 -1.42109e-15)
(0.00512375 0.00332815 5.36967e-15)
(0.00462687 0.000979591 1.71184e-15)
(0.00451164 -8.44955e-05 -1.14835e-14)
(0.00412246 0.00122089 4.3342e-14)
(-0.000918158 -0.237462 2.17061e-15)
(-0.0191569 -0.23412 -4.32117e-16)
(-0.0352014 -0.206435 2.42628e-15)
(-0.0560403 -0.211083 -3.30046e-15)
(-0.0697984 -0.202568 1.10744e-14)
(-0.0825973 -0.189738 -1.62794e-15)
(-0.0962861 -0.179043 -4.16206e-14)
(-0.104892 -0.164424 7.80554e-14)
(-0.110842 -0.147985 1.68806e-13)
(-0.114631 -0.13169 -1.05288e-13)
(-0.114593 -0.114829 -1.07582e-13)
(-0.112076 -0.0984299 6.47058e-14)
(-0.10748 -0.0834278 -1.49204e-13)
(-0.101016 -0.0701805 -2.81889e-14)
(-0.0936933 -0.0586577 -4.60064e-14)
(-0.0866473 -0.0478664 1.98617e-14)
(-0.0763338 -0.0458257 4.02543e-14)
(-0.0696363 -0.0448088 4.46257e-13)
(-0.0638989 -0.0459337 3.52841e-13)
(-0.0601988 -0.0483176 -1.57347e-13)
(-0.0601551 -0.0507784 2.25523e-13)
(-0.0638894 -0.0497555 1.87892e-14)
(-0.0690775 -0.039691 -5.72517e-14)
(-0.0708924 -0.0212426 -1.18403e-13)
(-0.0665701 -0.00447274 9.30055e-15)
(-0.0547557 0.003923 3.22341e-14)
(-0.0459722 0.0058931 3.99457e-14)
(-0.0418692 0.00391451 -3.77994e-14)
(-0.0397616 0.00261856 9.83274e-15)
(-0.0201003 -0.000598164 7.59058e-14)
(-0.0724787 0.00402283 -2.96403e-14)
(-0.062223 -0.00110463 -1.66995e-13)
(-0.0583356 0.00416353 -8.96131e-14)
(-0.0493705 0.00530803 -6.09528e-14)
(-0.0431081 0.00160581 6.39207e-14)
(0.0160515 -0.00365184 5.84687e-14)
(0.0538706 -0.00940543 5.90595e-14)
(0.065659 -0.0155879 6.61689e-14)
(0.0602937 -0.00632153 -1.25319e-15)
(0.0149071 -0.226189 -9.15323e-15)
(0.0277537 -0.201344 -1.06358e-14)
(0.0385074 -0.165808 2.54798e-15)
(0.0465663 -0.141445 3.39082e-14)
(0.050428 -0.115011 2.31044e-14)
(0.0499233 -0.0876377 -1.94423e-13)
(0.0501007 -0.0717523 -1.17055e-13)
(0.0551229 -0.066955 -1.8374e-13)
(0.0623376 -0.0632311 2.29714e-14)
(0.0660464 -0.0564151 2.06833e-14)
(0.0671085 -0.0486928 -5.21176e-14)
(0.0659364 -0.0411136 4.95148e-15)
(0.0628412 -0.0340694 -2.45683e-14)
(0.0588522 -0.0278249 -4.57601e-14)
(0.0544448 -0.0224459 -1.42043e-13)
(0.0496294 -0.0179151 -1.19934e-14)
(0.0449173 -0.0142821 8.61742e-14)
(0.0405078 -0.0113727 -1.33478e-14)
(0.0364904 -0.00903014 1.66871e-14)
(0.0328185 -0.00714443 -3.04627e-14)
(0.0295303 -0.00562178 -4.67326e-14)
(0.0265682 -0.00436444 -4.19802e-15)
(0.0238382 -0.00329676 1.75975e-14)
(0.0212326 -0.00235185 1.89984e-14)
(0.0187932 -0.00149409 -5.93074e-16)
(0.0165808 -0.000779298 -9.98077e-15)
(0.014564 -0.000267288 -1.68206e-14)
(0.0127825 0.00010393 3.25654e-15)
(0.0112258 0.000398619 -1.8837e-16)
(0.00985245 0.000603498 2.93953e-16)
(0.00864204 0.000758553 4.66038e-16)
(0.00766546 0.000838434 -5.09078e-17)
(0.0068988 0.000888755 2.27032e-16)
(0.0062333 0.000812326 -9.1265e-16)
(0.00595787 -0.000277047 3.52476e-16)
(0.00534179 -0.000101011 -1.44867e-14)
(0.00451114 0.00076902 2.27375e-14)
(0.00422143 0.000835664 5.79966e-14)
(0.00456587 0.000322953 -2.15364e-14)
(3.94862e-05 -0.202209 9.70611e-16)
(-0.0146405 -0.199418 -2.76072e-16)
(-0.0276226 -0.177848 5.80345e-16)
(-0.0447424 -0.183035 3.37276e-15)
(-0.0561079 -0.176667 -8.74492e-15)
(-0.0668372 -0.16675 -1.88598e-14)
(-0.0784413 -0.15923 4.52019e-14)
(-0.0858869 -0.148209 -9.00712e-15)
(-0.0911915 -0.135523 5.0429e-14)
(-0.094835 -0.122963 1.02566e-13)
(-0.0952326 -0.109634 2.20761e-14)
(-0.0935845 -0.0964709 3.42604e-14)
(-0.0901732 -0.0842781 2.15727e-13)
(-0.0850002 -0.0731349 3.66171e-13)
(-0.0791235 -0.0632048 3.31904e-13)
(-0.0724277 -0.0550549 -5.43725e-15)
(-0.0663525 -0.046874 4.04368e-13)
(-0.0632642 -0.0409639 2.6371e-14)
(-0.0611214 -0.0377367 -1.18963e-13)
(-0.0601862 -0.0364833 1.57291e-13)
(-0.0618402 -0.0367073 -2.607e-13)
(-0.0665321 -0.0359595 1.09942e-13)
(-0.0718445 -0.0298815 1.1075e-13)
(-0.0713934 -0.0170919 4.47164e-14)
(-0.0625699 -0.00390475 1.20347e-13)
(-0.0502987 0.00398656 -4.94251e-14)
(-0.0381636 0.00582183 -4.27074e-14)
(-0.0303784 0.00429249 6.31143e-15)
(-0.0262461 0.00314906 2.63483e-14)
(-0.0249195 0.00298957 -7.02188e-14)
(-0.0234094 0.00195296 -6.86615e-14)
(-0.0221825 0.000145582 1.40114e-13)
(-0.0229492 -0.00232722 3.15533e-14)
(-0.0778591 0.00986097 -6.01017e-14)
(-0.0499484 0.00239416 -4.99829e-16)
(-0.0321505 -0.00258526 -1.44331e-13)
(-0.01672 0.00121026 -5.23787e-14)
(0.0407455 -0.0122332 -2.037e-14)
(0.0607438 -0.00698727 -3.2365e-14)
(0.0128392 -0.192725 -6.64449e-15)
(0.0233894 -0.172865 -1.26335e-14)
(0.0324321 -0.143939 6.07845e-15)
(0.0396056 -0.124198 8.30936e-14)
(0.043403 -0.102444 3.54519e-14)
(0.0439705 -0.0796059 9.97114e-16)
(0.0462216 -0.069253 1.82488e-13)
(0.0536249 -0.0672622 -8.42178e-14)
(0.0598022 -0.0626984 -1.35386e-13)
(0.0632136 -0.0559945 4.89966e-14)
(0.0643805 -0.0487866 9.80129e-14)
(0.0635826 -0.0416863 -2.41022e-14)
(0.0610388 -0.0349527 6.84151e-14)
(0.0575802 -0.0289252 9.20916e-15)
(0.0536143 -0.023691 3.52597e-14)
(0.049188 -0.0191885 1.25562e-14)
(0.0447778 -0.0154955 -3.92226e-14)
(0.0405436 -0.0124986 3.23757e-14)
(0.0366057 -0.0100675 -2.44441e-14)
(0.0329625 -0.00809137 4.46005e-15)
(0.0296649 -0.00648586 6.49163e-14)
(0.026656 -0.00515277 -2.24687e-14)
(0.0238652 -0.00401252 -3.03271e-14)
(0.0211983 -0.00300335 6.55704e-15)
(0.0187178 -0.00210629 -1.62108e-15)
(0.0164884 -0.00136146 2.96413e-15)
(0.0144654 -0.000807962 8.50721e-15)
(0.0126731 -0.000400272 -1.46083e-15)
(0.0111074 -8.28243e-05 -1.37728e-16)
(0.00973174 0.000147296 1.92892e-16)
(0.00851928 0.000291767 1.40348e-15)
(0.00751338 0.000438205 1.78912e-16)
(0.00677137 0.000544644 -9.45198e-16)
(0.00610663 0.000610283 -1.82374e-16)
(0.00550129 0.000674156 -4.29189e-16)
(0.00498819 0.000748676 4.33407e-15)
(0.00443099 0.000646415 -8.98998e-15)
(0.00422486 0.000555187 -1.42739e-14)
(0.00404595 0.00113245 -5.313e-14)
(-0.0014666 -0.173421 2.73713e-15)
(-0.0140524 -0.170867 -3.06799e-15)
(-0.0250331 -0.153763 8.37079e-20)
(-0.0399088 -0.158764 2.40529e-15)
(-0.0498943 -0.153518 -1.87585e-15)
(-0.059394 -0.145395 2.58884e-15)
(-0.0698569 -0.139594 8.65332e-15)
(-0.0766976 -0.130417 -1.08625e-13)
(-0.0818625 -0.119825 -1.44983e-14)
(-0.0857702 -0.109346 1.69583e-13)
(-0.0867885 -0.0978522 -7.1692e-14)
(-0.0860815 -0.0863076 -1.52474e-13)
(-0.0838208 -0.0753466 -2.97895e-13)
(-0.0799314 -0.06502 -2.45888e-13)
(-0.0751454 -0.0556878 -1.69019e-13)
(-0.0696843 -0.0474439 -6.16753e-14)
(-0.064049 -0.0400438 -2.26494e-13)
(-0.0594604 -0.0372241 -3.14718e-13)
(-0.0569643 -0.0364304 -1.39302e-13)
(-0.0557456 -0.0367194 3.57243e-13)
(-0.0568697 -0.0371145 3.28194e-13)
(-0.0607393 -0.0357905 -2.17964e-14)
(-0.0660231 -0.0299074 -5.03412e-14)
(-0.0677968 -0.0186686 -1.59337e-13)
(-0.0620644 -0.00669025 -9.27271e-14)
(-0.0513517 0.0010069 4.27218e-14)
(-0.0405455 0.0036333 3.30089e-14)
(-0.0326249 0.0030646 3.71061e-15)
(-0.0273757 0.00236423 -1.98238e-14)
(-0.0226794 0.00199393 7.3941e-14)
(-0.0192228 0.00103203 1.54538e-13)
(-0.0168902 0.000243429 -1.05286e-14)
(-0.020914 0.00219488 2.7303e-14)
(-0.0197132 0.00167267 4.73898e-14)
(-0.0259901 0.00317791 -1.8797e-14)
(-0.0570864 0.00443973 1.75134e-13)
(-0.0551844 0.00203492 8.07036e-14)
(-0.0168862 -0.00253115 -6.53847e-14)
(0.0408611 -0.00500919 -1.97368e-14)
(0.00974546 -0.165349 1.65988e-14)
(0.0190337 -0.149354 2.03514e-14)
(0.0271502 -0.125722 8.13358e-15)
(0.0338174 -0.109487 9.8108e-14)
(0.0377081 -0.0912421 -1.73332e-13)
(0.0396951 -0.0748128 8.95547e-14)
(0.0437503 -0.0676569 1.51584e-13)
(0.051097 -0.0655475 6.66594e-14)
(0.0565032 -0.0608895 -3.66633e-14)
(0.0596238 -0.0545724 -3.4345e-14)
(0.0609745 -0.0479881 2.17678e-14)
(0.0605855 -0.0414648 3.71343e-14)
(0.0585875 -0.0351534 -8.97364e-14)
(0.0557105 -0.02942 6.45335e-14)
(0.0522555 -0.0243538 1.64432e-14)
(0.0482919 -0.0198949 -1.11396e-14)
(0.044263 -0.0161415 -5.76721e-14)
(0.0402907 -0.0130257 -5.76745e-14)
(0.036517 -0.0104535 4.8891e-14)
(0.0329696 -0.00833297 1.42613e-14)
(0.0297155 -0.00659499 4.91023e-15)
(0.0267082 -0.00515235 5.14473e-14)
(0.0238913 -0.00393062 2.08429e-14)
(0.0211876 -0.00287142 -2.43919e-15)
(0.0186856 -0.00195556 6.78781e-15)
(0.0164451 -0.00120205 -4.72202e-15)
(0.0144161 -0.000632712 -9.28424e-15)
(0.0126136 -0.000211204 1.36333e-15)
(0.0110352 0.000113043 -1.19187e-15)
(0.00965066 0.000347965 -4.02654e-16)
(0.00843137 0.000513056 -1.03031e-15)
(0.00738503 0.000627289 1.12127e-15)
(0.00665994 0.000726852 2.77315e-15)
(0.0060175 0.000762374 2.36891e-15)
(0.00542655 0.000765596 1.36142e-15)
(0.00490347 0.000728242 -5.26743e-15)
(0.0044408 0.000688918 3.20326e-15)
(0.00421851 0.000673404 3.61457e-14)
(0.00373923 0.00117835 4.12111e-14)
(-0.00170584 -0.149868 7.4745e-16)
(-0.0124196 -0.147808 1.78833e-15)
(-0.0217099 -0.134179 -2.53846e-15)
(-0.0344661 -0.138884 3.49426e-15)
(-0.0431043 -0.134769 -7.37456e-15)
(-0.0512989 -0.128122 1.09353e-14)
(-0.0604737 -0.123798 -1.31594e-14)
(-0.0665841 -0.116532 -2.44039e-14)
(-0.0712627 -0.10797 -3.27553e-14)
(-0.0750125 -0.0995607 -4.62617e-14)
(-0.0762626 -0.090112 1.86036e-14)
(-0.0760301 -0.0804804 1.77377e-13)
(-0.0744711 -0.0712266 2.40288e-13)
(-0.0714079 -0.0623399 3.86301e-14)
(-0.0674769 -0.0542092 5.03821e-15)
(-0.0629161 -0.0469768 1.1453e-14)
(-0.0578921 -0.0410104 -4.0552e-14)
(-0.0540502 -0.0360394 1.28318e-13)
(-0.0527824 -0.0337846 1.17293e-13)
(-0.0524594 -0.0326193 -2.70609e-13)
(-0.0538066 -0.0317465 -2.76203e-14)
(-0.0568666 -0.0299736 5.70426e-14)
(-0.0607393 -0.0251775 -7.34655e-14)
(-0.0622096 -0.0164315 7.81332e-14)
(-0.0580938 -0.00672626 1.11981e-15)
(-0.049688 -1.08747e-05 -1.45035e-14)
(-0.0407836 0.00265431 -4.25122e-14)
(-0.0339751 0.00253791 1.74441e-15)
(-0.0294551 0.00204964 -4.07291e-17)
(-0.0257905 0.00181607 3.4929e-14)
(-0.0222936 0.00107964 1.70244e-14)
(-0.0189347 0.000365247 -7.45077e-14)
(-0.0152765 -0.000108647 -3.45278e-14)
(-0.0142969 0.0002902 1.72479e-13)
(-0.0131336 0.000516132 2.69486e-14)
(-0.0239419 0.00479553 -1.28483e-13)
(-0.0338217 -0.000775463 -4.24924e-14)
(-0.0679793 0.00915593 5.11224e-14)
(0.00251897 -0.00142997 -1.20941e-15)
(0.00791237 -0.142989 3.45438e-15)
(0.0159794 -0.129903 -4.88271e-14)
(0.0231241 -0.110335 2.40324e-14)
(0.029195 -0.096768 2.14552e-14)
(0.0329464 -0.081404 4.62638e-14)
(0.0360156 -0.0699746 -1.55146e-14)
(0.0411363 -0.065196 -3.68906e-14)
(0.0479278 -0.0626877 -3.84133e-15)
(0.0528249 -0.0582177 -2.80508e-15)
(0.0557289 -0.0524454 1.38545e-14)
(0.057229 -0.0465087 3.99777e-14)
(0.0572071 -0.0406211 6.59041e-14)
(0.0557205 -0.0348453 -4.54148e-15)
(0.0534089 -0.029524 -1.34704e-13)
(0.0504606 -0.0247311 2.62365e-14)
(0.0469748 -0.0204343 7.68454e-14)
(0.0433549 -0.0167426 5.89929e-14)
(0.0396738 -0.0136116 2.682e-14)
(0.0361101 -0.0109911 -2.22078e-14)
(0.0327016 -0.00880688 -5.90446e-15)
(0.0295253 -0.00700266 -2.34761e-14)
(0.0265484 -0.0054996 -4.30744e-14)
(0.0237339 -0.00422849 1.77417e-14)
(0.0210242 -0.00313351 1.67204e-14)
(0.0185254 -0.00220074 2.98085e-15)
(0.0162942 -0.00143864 1.69033e-14)
(0.0142761 -0.000853342 5.90331e-15)
(0.0124783 -0.000415896 -9.97072e-16)
(0.0109016 -8.31101e-05 1.11542e-15)
(0.00952027 0.000162246 4.50405e-16)
(0.00830384 0.000329759 -1.26575e-15)
(0.00724402 0.000455896 -1.49197e-15)
(0.00652581 0.000564058 -7.37999e-16)
(0.00590743 0.000616185 -3.92541e-16)
(0.00533856 0.000647196 2.73079e-15)
(0.00483982 0.000645826 -4.76601e-16)
(0.00439902 0.000638813 1.17235e-14)
(0.00421103 0.000590099 -1.28671e-14)
(0.0041739 0.000684408 -6.11463e-15)
(-0.00204868 -0.130308 3.83582e-15)
(-0.0112939 -0.128496 -1.37308e-15)
(-0.0193618 -0.117529 -2.69017e-15)
(-0.0304594 -0.121858 -3.52176e-15)
(-0.0380799 -0.118524 1.34543e-14)
(-0.045338 -0.113057 -1.7884e-14)
(-0.0535039 -0.10976 -5.22581e-15)
(-0.0590031 -0.103719 3.46756e-14)
(-0.0634011 -0.0966567 1.93548e-14)
(-0.0670412 -0.0896994 3.55196e-14)
(-0.0685012 -0.0816592 7.97781e-14)
(-0.0687282 -0.0733907 6.4478e-14)
(-0.0677758 -0.0653106 -1.51955e-13)
(-0.0654533 -0.0573894 -2.44855e-13)
(-0.0623529 -0.0500303 4.19915e-14)
(-0.0585601 -0.0433908 3.11578e-13)
(-0.0544033 -0.0375466 6.39861e-14)
(-0.0503592 -0.0328641 -1.77303e-13)
(-0.0492461 -0.030834 -3.34579e-14)
(-0.0490681 -0.03004 3.08642e-14)
(-0.0502373 -0.0292228 -6.90875e-14)
(-0.0527061 -0.0274051 -8.91946e-14)
(-0.0556621 -0.0230762 1.00698e-14)
(-0.0567381 -0.0156299 6.89407e-14)
(-0.0534131 -0.00724681 5.99391e-14)
(-0.0465081 -0.0010892 -3.39491e-15)
(-0.0389585 0.00171158 3.582e-14)
(-0.0329821 0.00201836 6.41882e-15)
(-0.0289783 0.00176395 6.15552e-14)
(-0.025947 0.00162464 -4.57776e-14)
(-0.0233492 0.00109783 -1.59841e-13)
(-0.0211365 0.000573767 -5.09354e-14)
(-0.0192606 0.000406062 2.83937e-14)
(-0.0170699 0.00039935 1.53054e-14)
(-0.0139711 0.000154138 -4.08111e-15)
(-0.00990519 -0.00111928 5.36146e-15)
(-0.0146159 -0.00265663 1.8227e-14)
(-0.0446667 -0.00434314 4.64208e-15)
(-0.024708 0.00588672 2.47456e-14)
(0.00631043 -0.124351 -8.59997e-15)
(0.0134385 -0.113479 -7.7364e-15)
(0.0198024 -0.0972018 -1.34422e-14)
(0.0252632 -0.0857932 -1.74008e-14)
(0.0288404 -0.0727492 2.99042e-14)
(0.0326105 -0.06487 -4.30274e-14)
(0.0382725 -0.0618596 -1.73171e-14)
(0.0444623 -0.0592171 6.61613e-14)
(0.0489828 -0.0550517 -3.97383e-14)
(0.0517217 -0.0498359 7.03709e-14)
(0.0533497 -0.0445709 6.77742e-14)
(0.0536352 -0.0393224 4.37685e-14)
(0.0525885 -0.0341048 3.28621e-14)
(0.0507972 -0.029241 4.8949e-14)
(0.048362 -0.0247828 -1.39729e-14)
(0.0453432 -0.0206958 3.13037e-15)
(0.0421406 -0.0171146 3.52601e-14)
(0.0387886 -0.0140085 2.71384e-14)
(0.0354684 -0.011361 -2.57233e-15)
(0.032236 -0.00912153 -5.43327e-14)
(0.0291762 -0.00724971 -9.51781e-15)
(0.0262655 -0.00567843 2.03635e-16)
(0.0234859 -0.00434818 -3.82413e-14)
(0.0207957 -0.00321014 4.17099e-15)
(0.0183228 -0.00225276 -6.30111e-15)
(0.0161146 -0.00147571 -1.29236e-14)
(0.0141167 -0.000871928 9.0652e-16)
(0.0123315 -0.000416613 8.46275e-17)
(0.0107612 -7.15133e-05 5.6076e-17)
(0.00938423 0.00018597 -4.94176e-16)
(0.00817205 0.000365257 1.14881e-15)
(0.00711529 0.000496567 3.32318e-15)
(0.00638517 0.000600503 -1.24473e-15)
(0.00578657 0.000651144 -4.14381e-15)
(0.0052393 0.000675582 -1.81132e-15)
(0.00475853 0.00066321 9.73686e-15)
(0.00433999 0.000646639 -3.41535e-14)
(0.00415833 0.000583162 -3.03445e-14)
(0.0041164 0.000630228 3.64193e-14)
(-0.00222138 -0.113804 -2.76244e-15)
(-0.0102254 -0.112305 8.14709e-16)
(-0.0172215 -0.103446 3.60546e-15)
(-0.0268963 -0.107378 2.3968e-15)
(-0.0336083 -0.10465 5.61028e-15)
(-0.0400048 -0.100124 4.87589e-15)
(-0.047257 -0.0976085 -1.81983e-14)
(-0.0522332 -0.0927142 -4.87375e-14)
(-0.0562596 -0.0868767 -4.48011e-14)
(-0.0596945 -0.0811511 -9.30757e-15)
(-0.061228 -0.0743928 -5.63855e-14)
(-0.0617416 -0.0674076 -1.86574e-14)
(-0.0612016 -0.0604949 1.41141e-13)
(-0.0594304 -0.0536022 7.19346e-14)
(-0.0569462 -0.0471295 -3.21795e-15)
(-0.053809 -0.0411947 -2.37936e-13)
(-0.0502824 -0.035948 -6.36128e-14)
(-0.0466917 -0.0314917 2.19714e-13)
(-0.0454838 -0.0288111 1.05387e-13)
(-0.0456657 -0.0275324 -4.92007e-14)
(-0.0468401 -0.0263211 -6.04783e-15)
(-0.0489445 -0.0243384 4.87004e-14)
(-0.051263 -0.020527 1.31169e-14)
(-0.0520628 -0.0143845 -9.10753e-14)
(-0.0493173 -0.00734657 -1.52974e-13)
(-0.0435177 -0.001864 4.60756e-14)
(-0.036956 0.000928161 -8.58532e-15)
(-0.031507 0.00154776 -9.64182e-15)
(-0.0276924 0.00149576 -3.48277e-14)
(-0.0248562 0.00143265 -2.76954e-14)
(-0.0225718 0.00104618 4.72394e-14)
(-0.0208549 0.00062597 1.65694e-13)
(-0.0195608 0.000427124 5.10163e-14)