/*--------------------------------*- C++ -*----------------------------------*\
| =========                 |                                                 |
| \\      /  F ield         | OpenFOAM: The Open Source CFD Toolbox           |
|  \\    /   O peration     | Version:  2312                                  |
|   \\  /    A nd           | Website:  www.openfoam.com                      |
|    \\/     M anipulation  |                                                 |
\*---------------------------------------------------------------------------*/
FoamFile
{
    version     2.0;
    format      ascii;
    arch        "LSB;label=32;scalar=64";
    class       volScalarField;
    location    "200";
    object      nuTilda;
}
// * * * * * * * * * * * * * * * * * * * * * * * * * * * * * * * * * * * * * //

dimensions      [0 2 -1 0 0 0 0];

internalField   nonuniform List<scalar> 
10720
(
6.27549e-05
6.59478e-05
7.00339e-05
7.51162e-05
8.14591e-05
8.94849e-05
9.98544e-05
0.000113118
0.000130526
0.000153526
0.000184401
0.00022654
0.00028443
0.000365916
0.000484253
0.000661483
0.000940527
0.00138869
0.00219595
0.00357772
0.00677258
0.0126845
0.0327503
0.0752587
0.0945186
0.0959259
0.0967583
0.100036
0.103455
0.105179
0.105113
0.10379
0.101368
0.0979116
0.0932921
0.0874319
0.0790432
0.0689365
0.0336113
5.9859e-05
5.72289e-05
5.44837e-05
5.1792e-05
4.90484e-05
4.6268e-05
4.35602e-05
4.1469e-05
4.34258e-05
4.73335e-05
5.29739e-05
6.06942e-05
7.11986e-05
8.57543e-05
0.000106171
0.000135445
0.000178357
0.000243021
0.000343634
0.000505135
0.000777102
0.00124754
0.00212811
0.00378783
0.00737036
0.0147996
0.032682
0.0665934
0.0936645
0.105153
0.108536
0.109472
0.109564
0.109065
0.108059
0.106658
0.104505
0.102059
0.092538
3.80784e-05
3.78584e-05
3.76574e-05
3.74887e-05
3.7293e-05
3.7111e-05
3.69745e-05
3.68536e-05
3.68005e-05
3.68423e-05
3.69069e-05
3.74756e-05
3.95446e-05
4.40914e-05
5.34986e-05
7.13302e-05
0.000106312
0.000171692
0.00031163
0.000581814
0.0012705
0.00277807
0.006776
0.0195894
0.0380883
0.0612464
0.0897211
0.12037
0.145599
0.160103
0.165692
0.166565
0.16503
0.161765
0.157344
0.151965
0.146746
0.138068
0.13774
3.82516e-05
3.8483e-05
3.86777e-05
3.89381e-05
3.92011e-05
3.94637e-05
3.97151e-05
3.9926e-05
3.97994e-05
3.95249e-05
3.91487e-05
3.86837e-05
3.81407e-05
3.7519e-05
3.67845e-05
3.59135e-05
3.48168e-05
3.34273e-05
3.15497e-05
2.89609e-05
2.51577e-05
1.97821e-05
1.1794e-05
4.76884e-06
7.95153e-06
0.000116589
0.000549347
0.00420108
0.0142045
0.0288351
0.0438473
0.0551741
0.0619274
0.0657018
0.0680945
0.0700822
0.0718134
0.0753922
0.0785894
4.03543e-05
4.03853e-05
4.04175e-05
4.04522e-05
4.04947e-05
4.05421e-05
4.05962e-05
4.06593e-05
4.07335e-05
4.08199e-05
4.09221e-05
4.10468e-05
4.11851e-05
4.14255e-05
4.1456e-05
4.07487e-05
3.80211e-05
3.53496e-05
1.22073e-05
0.000120645
6.60909e-05
0.000139947
0.000125397
0.000691814
0.0029073
0.00704177
0.0145458
0.028974
0.0539186
0.088976
0.127337
0.159242
0.180107
0.192202
0.199001
0.201988
0.203303
0.197627
0.20579
4.03306e-05
4.02959e-05
4.02692e-05
4.02298e-05
4.01959e-05
4.01594e-05
4.01265e-05
4.01001e-05
4.01103e-05
4.01391e-05
4.01763e-05
4.02205e-05
4.02742e-05
4.03341e-05
4.04014e-05
4.04754e-05
4.05591e-05
4.06546e-05
4.07681e-05
4.09052e-05
4.10799e-05
4.13018e-05
4.16126e-05
4.19393e-05
4.23711e-05
4.19037e-05
4.20438e-05
3.12678e-05
0.000109293
0.000798955
0.00303938
0.00758278
0.0143137
0.0225148
0.0312486
0.0396989
0.0470997
0.0537765
0.0632659
4.00275e-05
4.00233e-05
4.00223e-05
4.0023e-05
4.00247e-05
4.00296e-05
4.00386e-05
4.00511e-05
4.00696e-05
4.00946e-05
4.01276e-05
4.01708e-05
4.02268e-05
4.02978e-05
4.03903e-05
4.04946e-05
4.03341e-05
3.95918e-05
3.5745e-05
2.67926e-05
1.34331e-06
3.16128e-05
2.52604e-05
0.000142016
0.000607467
0.00149614
0.00314368
0.000128949
0.00283423
0.01158
0.0320388
0.0671171
0.11177
0.154101
0.186295
0.20868
0.225371
0.233015
0.248602
4.00281e-05
4.00325e-05
4.0038e-05
4.00425e-05
4.00499e-05
4.00541e-05
4.00566e-05
4.00583e-05
4.00542e-05
4.00492e-05
4.00428e-05
4.0036e-05
4.00298e-05
4.00238e-05
4.00178e-05
4.00116e-05
4.00049e-05
3.99976e-05
3.99884e-05
3.99792e-05
3.99696e-05
3.99593e-05
3.9947e-05
3.99357e-05
3.99234e-05
3.99286e-05
3.99137e-05
4.0033e-05
3.9843e-05
3.98863e-05
3.79494e-05
3.58121e-05
0.000235204
0.00105517
0.00306194
0.00692805
0.0131542
0.0219325
0.0393198
4.00728e-05
4.0074e-05
4.00746e-05
4.00763e-05
4.00793e-05
4.0083e-05
4.00879e-05
4.00944e-05
4.01029e-05
4.01141e-05
4.01286e-05
4.01477e-05
4.01727e-05
4.02048e-05
4.02483e-05
4.02988e-05
4.03753e-05
4.04667e-05
4.07487e-05
4.04262e-05
3.45954e-05
2.06733e-05
7.67366e-06
3.33096e-06
0
0
0
2.80201e-05
0.000629181
0.000141938
0.000898867
0.0063296
0.0253089
0.0636355
0.115145
0.165862
0.208219
0.239621
0.269581
4.00724e-05
4.00703e-05
4.00722e-05
4.00707e-05
4.00728e-05
4.00708e-05
4.00667e-05
4.00629e-05
4.0061e-05
4.00607e-05
4.00608e-05
4.00611e-05
4.00623e-05
4.00637e-05
4.00658e-05
4.00684e-05
4.00715e-05
4.00751e-05
4.00793e-05
4.0084e-05
4.00892e-05
4.00949e-05
4.01013e-05
4.01084e-05
4.01177e-05
4.01256e-05
4.01504e-05
4.01116e-05
4.03792e-05
3.92711e-05
4.44563e-05
2.1148e-05
6.32192e-05
0.000255288
9.4206e-05
0.000317615
0.00105063
0.00176994
0.0137754
4.00621e-05
4.00616e-05
4.00626e-05
4.00634e-05
4.00639e-05
4.00649e-05
4.00662e-05
4.00679e-05
4.00703e-05
4.00736e-05
4.00781e-05
4.00841e-05
4.00923e-05
4.01033e-05
4.01184e-05
4.01385e-05
4.01656e-05
4.01996e-05
4.02582e-05
4.04319e-05
4.07482e-05
3.93245e-05
3.40619e-05
1.71823e-05
7.7122e-06
5.69951e-06
4.3271e-06
1.73796e-06
0
3.14603e-05
0.000201691
0.00149463
0.00211979
0.00889714
0.0330708
0.0843534
0.149548
0.213195
0.267566
4.00613e-05
4.00607e-05
4.00629e-05
4.00628e-05
4.00662e-05
4.00658e-05
4.0063e-05
4.00605e-05
4.00588e-05
4.00579e-05
4.00573e-05
4.00569e-05
4.00569e-05
4.00568e-05
4.0057e-05
4.00573e-05
4.00577e-05
4.00582e-05
4.00587e-05
4.00593e-05
4.00597e-05
4.00601e-05
4.00602e-05
4.00599e-05
4.00597e-05
4.00602e-05
4.00607e-05
4.00639e-05
4.00629e-05
4.00793e-05
4.0043e-05
4.01941e-05
3.88916e-05
3.60634e-05
3.03102e-05
7.87539e-05
0.00024905
0.000462616
0.00241564
4.00637e-05
4.00638e-05
4.00643e-05
4.00644e-05
4.00647e-05
4.00649e-05
4.00654e-05
4.00662e-05
4.00672e-05
4.00686e-05
4.00705e-05
4.00732e-05
4.00769e-05
4.00819e-05
4.00889e-05
4.00988e-05
4.0112e-05
4.01264e-05
4.01451e-05
4.01587e-05
4.03159e-05
4.07749e-05
4.10108e-05
3.93642e-05
3.49104e-05
2.86764e-05
2.14245e-05
8.47762e-06
6.77563e-06
3.40989e-06
0
0
0.00048342
0.00207657
0.00111275
0.017864
0.069001
0.153942
0.239514
4.0063e-05
4.00615e-05
4.00623e-05
4.00618e-05
4.00649e-05
4.00648e-05
4.00624e-05
4.00601e-05
4.00588e-05
4.00583e-05
4.0058e-05
4.0058e-05
4.00581e-05
4.0058e-05
4.00582e-05
4.00583e-05
4.00586e-05
4.00591e-05
4.00597e-05
4.00606e-05
4.00616e-05
4.00627e-05
4.00641e-05
4.00657e-05
4.00677e-05
4.00703e-05
4.00737e-05
4.00779e-05
4.00831e-05
4.00896e-05
4.00979e-05
4.01176e-05
4.02481e-05
3.94255e-05
3.37635e-05
1.80668e-05
7.64318e-06
1.69093e-06
9.69389e-05
4.0064e-05
4.0064e-05
4.00646e-05
4.00648e-05
4.00647e-05
4.00647e-05
4.00647e-05
4.00646e-05
4.00646e-05
4.00648e-05
4.00651e-05
4.00657e-05
4.00665e-05
4.00678e-05
4.00696e-05
4.00723e-05
4.00763e-05
4.0081e-05
4.00867e-05
4.00894e-05
4.00989e-05
4.01376e-05
4.03578e-05
4.08745e-05
4.12664e-05
4.08309e-05
3.9468e-05
3.64589e-05
3.11924e-05
1.63056e-05
8.02749e-06
2.97164e-06
0
0
0.000257425
0.0044276
0.0120029
0.0797266
0.186108
4.00627e-05
4.00606e-05
4.00604e-05
4.00596e-05
4.00626e-05
4.00629e-05
4.00611e-05
4.00592e-05
4.00584e-05
4.00581e-05
4.00582e-05
4.00583e-05
4.00582e-05
4.00583e-05
4.00582e-05
4.00581e-05
4.00581e-05
4.00581e-05
4.00583e-05
4.00585e-05
4.00588e-05
4.00592e-05
4.00596e-05
4.006e-05
4.00604e-05
4.00609e-05
4.00616e-05
4.00624e-05
4.00632e-05
4.00637e-05
4.00654e-05
4.0061e-05
4.00817e-05
3.99974e-05
4.02346e-05
3.79461e-05
3.24376e-05
8.93452e-06
2.31218e-05
4.00643e-05
4.00644e-05
4.00649e-05
4.00649e-05
4.00645e-05
4.00643e-05
4.0064e-05
4.00637e-05
4.00634e-05
4.00633e-05
4.00633e-05
4.00634e-05
4.00638e-05
4.00644e-05
4.00654e-05
4.0067e-05
4.00693e-05
4.00724e-05
4.00755e-05
4.0079e-05
4.00805e-05
4.00788e-05
4.00767e-05
4.01555e-05
4.04263e-05
4.08826e-05
4.13439e-05
4.17564e-05
4.17309e-05
3.92366e-05
3.54012e-05
1.39611e-05
6.38008e-06
0
0
0
0.00330089
0.0236594
0.119898
4.00626e-05
4.00601e-05
4.00593e-05
4.00582e-05
4.00611e-05
4.00617e-05
4.00602e-05
4.00586e-05
4.00582e-05
4.00581e-05
4.00582e-05
4.00583e-05
4.00583e-05
4.00583e-05
4.00582e-05
4.00583e-05
4.00583e-05
4.00582e-05
4.00582e-05
4.00582e-05
4.00584e-05
4.00586e-05
4.00589e-05
4.00594e-05
4.00599e-05
4.00608e-05
4.0062e-05
4.00635e-05
4.00655e-05
4.00679e-05
4.00709e-05
4.00743e-05
4.00804e-05
4.00811e-05
4.01366e-05
4.02777e-05
4.10716e-05
3.68518e-05
5.4723e-06
4.00638e-05
4.0064e-05
4.00645e-05
4.00645e-05
4.00641e-05
4.00639e-05
4.00636e-05
4.00632e-05
4.0063e-05
4.00627e-05
4.00625e-05
4.00624e-05
4.00624e-05
4.00624e-05
4.00625e-05
4.00626e-05
4.0063e-05
4.00635e-05
4.00639e-05
4.00647e-05
4.00662e-05
4.00691e-05
4.00668e-05
4.00533e-05
4.00519e-05
4.01292e-05
4.0318e-05
4.06605e-05
4.12021e-05
4.17516e-05
4.25005e-05
3.98658e-05
2.77504e-05
8.63617e-06
4.96396e-07
0
1.86066e-05
0.000859301
0.0638062
4.00623e-05
4.006e-05
4.00588e-05
4.00575e-05
4.00603e-05
4.00609e-05
4.00596e-05
4.00582e-05
4.00579e-05
4.00579e-05
4.00581e-05
4.00582e-05
4.00581e-05
4.00581e-05
4.0058e-05
4.00581e-05
4.00581e-05
4.00582e-05
4.00582e-05
4.00581e-05
4.00581e-05
4.00581e-05
4.00581e-05
4.00583e-05
4.00585e-05
4.00588e-05
4.00594e-05
4.00602e-05
4.00612e-05
4.00624e-05
4.00637e-05
4.00656e-05
4.00657e-05
4.00763e-05
4.00396e-05
4.02019e-05
3.95199e-05
4.45049e-05
2.11192e-05
4.00634e-05
4.00634e-05
4.00638e-05
4.00636e-05
4.00632e-05
4.00629e-05
4.00626e-05
4.00622e-05
4.00619e-05
4.00617e-05
4.00615e-05
4.00613e-05
4.00611e-05
4.0061e-05
4.0061e-05
4.00611e-05
4.00614e-05
4.0062e-05
4.00628e-05
4.00636e-05
4.00644e-05
4.00656e-05
4.00675e-05
4.00663e-05
4.00546e-05
4.00375e-05
4.00325e-05
4.00662e-05
4.0181e-05
4.04933e-05
4.10402e-05
4.23835e-05
4.18521e-05
3.62207e-05
2.2853e-06
6.20928e-08
0
0.00079623
0.0284932
4.00624e-05
4.00605e-05
4.00591e-05
4.00576e-05
4.006e-05
4.00605e-05
4.00593e-05
4.00582e-05
4.00578e-05
4.00577e-05
4.00579e-05
4.00579e-05
4.00579e-05
4.00578e-05
4.00577e-05
4.00578e-05
4.00578e-05
4.00579e-05
4.0058e-05
4.00581e-05
4.00581e-05
4.0058e-05
4.00579e-05
4.00579e-05
4.0058e-05
4.00583e-05
4.00588e-05
4.00595e-05
4.00604e-05
4.00616e-05
4.00631e-05
4.00652e-05
4.00658e-05
4.00751e-05
4.00471e-05
4.01811e-05
3.95945e-05
4.19641e-05
3.63965e-05
4.00634e-05
4.00631e-05
4.00632e-05
4.00628e-05
4.00623e-05
4.0062e-05
4.00616e-05
4.00613e-05
4.00611e-05
4.00608e-05
4.00607e-05
4.00606e-05
4.00606e-05
4.00605e-05
4.00605e-05
4.00605e-05
4.00605e-05
4.00604e-05
4.00605e-05
4.00608e-05
4.00614e-05
4.00623e-05
4.00636e-05
4.00657e-05
4.00666e-05
4.00626e-05
4.00513e-05
4.00341e-05
4.00096e-05
4.0027e-05
4.00682e-05
4.05509e-05
4.14325e-05
4.3312e-05
3.63947e-05
8.43864e-06
0
0.000238045
0.0108696
4.0063e-05
4.00613e-05
4.00597e-05
4.00577e-05
4.00598e-05
4.00604e-05
4.00592e-05
4.00582e-05
4.00578e-05
4.00577e-05
4.00577e-05
4.00577e-05
4.00577e-05
4.00575e-05
4.00574e-05
4.00574e-05
4.00574e-05
4.00575e-05
4.00576e-05
4.00577e-05
4.00578e-05
4.00579e-05
4.00579e-05
4.00578e-05
4.00577e-05
4.00578e-05
4.0058e-05
4.00584e-05
4.00591e-05
4.00599e-05
4.00609e-05
4.00623e-05
4.00634e-05
4.00671e-05
4.00612e-05
4.00959e-05
3.99812e-05
4.02678e-05
4.01679e-05
4.00636e-05
4.0063e-05
4.00628e-05
4.00622e-05
4.00616e-05
4.00612e-05
4.00608e-05
4.00604e-05
4.00602e-05
4.006e-05
4.00598e-05
4.00597e-05
4.00597e-05
4.00596e-05
4.00596e-05
4.00596e-05
4.00595e-05
4.00596e-05
4.00597e-05
4.006e-05
4.00604e-05
4.00609e-05
4.00616e-05
4.00628e-05
4.00646e-05
4.00666e-05
4.00673e-05
4.00649e-05
4.00528e-05
4.00325e-05
3.99883e-05
3.99687e-05
4.016e-05
4.09787e-05
4.42457e-05
3.41177e-05
2.4024e-06
7.98079e-05
0.00347587
4.00636e-05
4.0062e-05
4.00601e-05
4.00578e-05
4.00595e-05
4.00601e-05
4.00591e-05
4.00582e-05
4.00578e-05
4.00576e-05
4.00576e-05
4.00575e-05
4.00574e-05
4.00572e-05
4.0057e-05
4.0057e-05
4.0057e-05
4.00571e-05
4.00572e-05
4.00574e-05
4.00575e-05
4.00576e-05
4.00577e-05
4.00577e-05
4.00576e-05
4.00575e-05
4.00576e-05
4.00579e-05
4.00584e-05
4.0059e-05
4.00599e-05
4.0061e-05
4.00624e-05
4.00639e-05
4.00666e-05
4.00642e-05
4.0091e-05
3.99731e-05
4.03572e-05
4.00637e-05
4.00629e-05
4.00626e-05
4.00618e-05
4.00611e-05
4.00607e-05
4.00602e-05
4.00598e-05
4.00596e-05
4.00593e-05
4.00592e-05
4.00591e-05
4.0059e-05
4.0059e-05
4.0059e-05
4.00591e-05
4.00591e-05
4.00591e-05
4.00591e-05
4.00592e-05
4.00595e-05
4.00598e-05
4.00604e-05
4.00611e-05
4.00621e-05
4.00638e-05
4.0066e-05
4.00687e-05
4.00708e-05
4.0068e-05
4.00565e-05
4.00069e-05
3.99705e-05
3.99124e-05
4.08189e-05
4.68773e-05
6.73274e-06
1.99579e-05
0.000821932
4.00638e-05
4.00623e-05
4.00601e-05
4.00576e-05
4.00592e-05
4.00597e-05
4.00589e-05
4.00581e-05
4.00577e-05
4.00575e-05
4.00574e-05
4.00573e-05
4.00572e-05
4.0057e-05
4.00567e-05
4.00566e-05
4.00566e-05
4.00566e-05
4.00568e-05
4.00569e-05
4.00571e-05
4.00572e-05
4.00574e-05
4.00574e-05
4.00575e-05
4.00573e-05
4.00573e-05
4.00574e-05
4.00577e-05
4.00582e-05
4.00589e-05
4.00597e-05
4.00609e-05
4.00619e-05
4.00647e-05
4.00618e-05
4.00828e-05
4.00247e-05
4.01497e-05
4.00634e-05
4.00626e-05
4.00622e-05
4.00614e-05
4.00608e-05
4.00603e-05
4.00598e-05
4.00594e-05
4.00591e-05
4.00589e-05
4.00587e-05
4.00586e-05
4.00585e-05
4.00585e-05
4.00585e-05
4.00586e-05
4.00586e-05
4.00586e-05
4.00586e-05
4.00587e-05
4.00588e-05
4.00591e-05
4.00595e-05
4.006e-05
4.00607e-05
4.00618e-05
4.00633e-05
4.00653e-05
4.00684e-05
4.00718e-05
4.00755e-05
4.00705e-05
4.00304e-05
4.00655e-05
3.91609e-05
4.44302e-05
3.50278e-05
1.24904e-06
1.12004e-05
4.00636e-05
4.00622e-05
4.006e-05
4.00575e-05
4.00588e-05
4.00593e-05
4.00585e-05
4.00579e-05
4.00575e-05
4.00573e-05
4.00571e-05
4.0057e-05
4.00569e-05
4.00567e-05
4.00564e-05
4.00562e-05
4.00562e-05
4.00562e-05
4.00563e-05
4.00564e-05
4.00566e-05
4.00568e-05
4.0057e-05
4.00571e-05
4.00572e-05
4.00572e-05
4.00571e-05
4.00571e-05
4.00572e-05
4.00575e-05
4.0058e-05
4.00587e-05
4.00597e-05
4.00607e-05
4.00624e-05
4.0063e-05
4.00687e-05
4.00633e-05
4.0074e-05
4.00628e-05
4.0062e-05
4.00616e-05
4.00609e-05
4.00603e-05
4.00599e-05
4.00595e-05
4.00591e-05
4.00588e-05
4.00585e-05
4.00584e-05
4.00583e-05
4.00582e-05
4.00582e-05
4.00583e-05
4.00584e-05
4.00584e-05
4.00585e-05
4.00585e-05
4.00585e-05
4.00586e-05
4.00587e-05
4.00589e-05
4.00593e-05
4.00598e-05
4.00606e-05
4.00617e-05
4.00631e-05
4.00649e-05
4.00676e-05
4.00707e-05
4.00807e-05
4.00576e-05
4.01616e-05
3.9631e-05
4.00987e-05
4.66305e-05
3.98798e-06
2.57982e-06
4.00631e-05
4.0062e-05
4.006e-05
4.00575e-05
4.00585e-05
4.00589e-05
4.00582e-05
4.00576e-05
4.00572e-05
4.0057e-05
4.00568e-05
4.00567e-05
4.00566e-05
4.00563e-05
4.00561e-05
4.00559e-05
4.00558e-05
4.00558e-05
4.00558e-05
4.0056e-05
4.00561e-05
4.00563e-05
4.00565e-05
4.00567e-05
4.00568e-05
4.00569e-05
4.00569e-05
4.00568e-05
4.00568e-05
4.0057e-05
4.00573e-05
4.00578e-05
4.00586e-05
4.00595e-05
4.00607e-05
4.00622e-05
4.00636e-05
4.00696e-05
4.00639e-05
4.00621e-05
4.00613e-05
4.00609e-05
4.00603e-05
4.00598e-05
4.00595e-05
4.00591e-05
4.00588e-05
4.00586e-05
4.00584e-05
4.00583e-05
4.00582e-05
4.00582e-05
4.00583e-05
4.00583e-05
4.00584e-05
4.00585e-05
4.00585e-05
4.00586e-05
4.00585e-05
4.00585e-05
4.00586e-05
4.00587e-05
4.00589e-05
4.00593e-05
4.00599e-05
4.00608e-05
4.00619e-05
4.00631e-05
4.00649e-05
4.00664e-05
4.00725e-05
4.00709e-05
4.0081e-05
4.02543e-05
3.84548e-05
4.76883e-05
1.21899e-05
3.40234e-07
4.00627e-05
4.0062e-05
4.00602e-05
4.00577e-05
4.00583e-05
4.00586e-05
4.0058e-05
4.00573e-05
4.00569e-05
4.00566e-05
4.00565e-05
4.00563e-05
4.00562e-05
4.0056e-05
4.00557e-05
4.00555e-05
4.00554e-05
4.00554e-05
4.00554e-05
4.00555e-05
4.00557e-05
4.00559e-05
4.00561e-05
4.00563e-05
4.00565e-05
4.00566e-05
4.00566e-05
4.00565e-05
4.00564e-05
4.00565e-05
4.00567e-05
4.00571e-05
4.00577e-05
4.00585e-05
4.00595e-05
4.00609e-05
4.00619e-05
4.00671e-05
4.00646e-05
4.00615e-05
4.00608e-05
4.00604e-05
4.00598e-05
4.00594e-05
4.0059e-05
4.00587e-05
4.00586e-05
4.00585e-05
4.00584e-05
4.00584e-05
4.00584e-05
4.00584e-05
4.00585e-05
4.00586e-05
4.00586e-05
4.00587e-05
4.00588e-05
4.00588e-05
4.00588e-05
4.00588e-05
4.00588e-05
4.00588e-05
4.00589e-05
4.00591e-05
4.00595e-05
4.00602e-05
4.00611e-05
4.00622e-05
4.00635e-05
4.00651e-05
4.00654e-05
4.00794e-05
4.00182e-05
4.03862e-05
3.881e-05
4.39553e-05
3.30221e-05
4.73773e-06
4.00624e-05
4.0062e-05
4.00604e-05
4.00579e-05
4.00583e-05
4.00585e-05
4.00578e-05
4.00571e-05
4.00567e-05
4.00563e-05
4.00561e-05
4.0056e-05
4.00558e-05
4.00556e-05
4.00554e-05
4.00552e-05
4.0055e-05
4.0055e-05
4.0055e-05
4.00551e-05
4.00552e-05
4.00554e-05
4.00557e-05
4.00559e-05
4.00561e-05
4.00562e-05
4.00563e-05
4.00563e-05
4.00562e-05
4.00562e-05
4.00563e-05
4.00566e-05
4.0057e-05
4.00576e-05
4.00584e-05
4.00596e-05
4.00607e-05
4.00645e-05
4.00642e-05
4.00612e-05
4.00604e-05
4.006e-05
4.00595e-05
4.0059e-05
4.00587e-05
4.00585e-05
4.00585e-05
4.00585e-05
4.00586e-05
4.00586e-05
4.00587e-05
4.00587e-05
4.00588e-05
4.00589e-05
4.00589e-05
4.0059e-05
4.00591e-05
4.00591e-05
4.00591e-05
4.00591e-05
4.00591e-05
4.00591e-05
4.00591e-05
4.00592e-05
4.00595e-05
4.006e-05
4.00607e-05
4.00616e-05
4.00626e-05
4.00645e-05
4.00628e-05
4.00784e-05
4.00221e-05
4.02476e-05
3.96113e-05
4.07291e-05
4.25894e-05
1.74613e-05
4.00623e-05
4.0062e-05
4.00605e-05
4.00581e-05
4.00583e-05
4.00584e-05
4.00577e-05
4.0057e-05
4.00564e-05
4.0056e-05
4.00558e-05
4.00556e-05
4.00554e-05
4.00552e-05
4.0055e-05
4.00548e-05
4.00547e-05
4.00546e-05
4.00546e-05
4.00547e-05
4.00548e-05
4.0055e-05
4.00553e-05
4.00555e-05
4.00557e-05
4.00559e-05
4.0056e-05
4.00561e-05
4.00561e-05
4.0056e-05
4.0056e-05
4.00561e-05
4.00564e-05
4.00569e-05
4.00575e-05
4.00585e-05
4.00596e-05
4.00627e-05
4.00627e-05
4.0061e-05
4.00602e-05
4.00597e-05
4.00592e-05
4.00588e-05
4.00585e-05
4.00585e-05
4.00586e-05
4.00587e-05
4.00588e-05
4.00589e-05
4.0059e-05
4.00591e-05
4.00591e-05
4.00592e-05
4.00593e-05
4.00593e-05
4.00594e-05
4.00594e-05
4.00594e-05
4.00594e-05
4.00594e-05
4.00593e-05
4.00593e-05
4.00594e-05
4.00596e-05
4.006e-05
4.00605e-05
4.00613e-05
4.00621e-05
4.00637e-05
4.00629e-05
4.00718e-05
4.005e-05
4.01051e-05
4.00956e-05
3.94578e-05
4.36596e-05
3.10172e-05
4.0062e-05
4.00619e-05
4.00605e-05
4.00582e-05
4.00583e-05
4.00583e-05
4.00576e-05
4.00568e-05
4.00562e-05
4.00558e-05
4.00555e-05
4.00553e-05
4.00551e-05
4.00549e-05
4.00546e-05
4.00545e-05
4.00543e-05
4.00542e-05
4.00542e-05
4.00543e-05
4.00544e-05
4.00546e-05
4.00549e-05
4.00551e-05
4.00554e-05
4.00556e-05
4.00557e-05
4.00558e-05
4.00559e-05
4.00558e-05
4.00557e-05
4.00558e-05
4.00559e-05
4.00563e-05
4.00568e-05
4.00576e-05
4.00585e-05
4.00613e-05
4.00613e-05
4.00608e-05
4.00601e-05
4.00595e-05
4.00591e-05
4.00587e-05
4.00586e-05
4.00586e-05
4.00588e-05
4.00589e-05
4.00591e-05
4.00593e-05
4.00594e-05
4.00594e-05
4.00595e-05
4.00595e-05
4.00596e-05
4.00596e-05
4.00597e-05
4.00597e-05
4.00597e-05
4.00597e-05
4.00596e-05
4.00596e-05
4.00596e-05
4.00596e-05
4.00598e-05
4.00601e-05
4.00605e-05
4.00612e-05
4.00619e-05
4.0063e-05
4.00635e-05
4.0066e-05
4.00685e-05
4.00431e-05
4.02205e-05
3.94325e-05
4.20578e-05
3.80337e-05
4.00617e-05
4.00617e-05
4.00603e-05
4.00581e-05
4.00581e-05
4.00581e-05
4.00575e-05
4.00567e-05
4.0056e-05
4.00555e-05
4.00552e-05
4.0055e-05
4.00548e-05
4.00545e-05
4.00543e-05
4.00541e-05
4.0054e-05
4.00539e-05
4.00539e-05
4.0054e-05
4.00541e-05
4.00543e-05
4.00545e-05
4.00548e-05
4.0055e-05
4.00552e-05
4.00554e-05
4.00556e-05
4.00557e-05
4.00557e-05
4.00556e-05
4.00556e-05
4.00556e-05
4.00558e-05
4.00562e-05
4.00568e-05
4.00576e-05
4.00601e-05
4.006e-05
4.00605e-05
4.00598e-05
4.00592e-05
4.00589e-05
4.00587e-05
4.00587e-05
4.00588e-05
4.0059e-05
4.00592e-05
4.00594e-05
4.00596e-05
4.00597e-05
4.00598e-05
4.00599e-05
4.00599e-05
4.00599e-05
4.006e-05
4.006e-05
4.006e-05
4.006e-05
4.006e-05
4.00599e-05
4.00599e-05
4.00599e-05
4.00599e-05
4.006e-05
4.00602e-05
4.00606e-05
4.00611e-05
4.00618e-05
4.00626e-05
4.00637e-05
4.00634e-05
4.00728e-05
4.00381e-05
4.01774e-05
3.9751e-05
4.06886e-05
4.02963e-05
4.00613e-05
4.00613e-05
4.00602e-05
4.00581e-05
4.00579e-05
4.00578e-05
4.00572e-05
4.00564e-05
4.00558e-05
4.00553e-05
4.0055e-05
4.00547e-05
4.00545e-05
4.00542e-05
4.0054e-05
4.00538e-05
4.00537e-05
4.00536e-05
4.00536e-05
4.00536e-05
4.00537e-05
4.00539e-05
4.00542e-05
4.00544e-05
4.00547e-05
4.0055e-05
4.00552e-05
4.00554e-05
4.00555e-05
4.00556e-05
4.00556e-05
4.00555e-05
4.00555e-05
4.00556e-05
4.00558e-05
4.00563e-05
4.00569e-05
4.00591e-05
4.0059e-05
4.00602e-05
4.00595e-05
4.0059e-05
4.00588e-05
4.00587e-05
4.00588e-05
4.0059e-05
4.00592e-05
4.00595e-05
4.00597e-05
4.00599e-05
4.006e-05
4.00601e-05
4.00602e-05
4.00603e-05
4.00603e-05
4.00603e-05
4.00603e-05
4.00603e-05
4.00603e-05
4.00603e-05
4.00603e-05
4.00602e-05
4.00602e-05
4.00602e-05
4.00602e-05
4.00604e-05
4.00607e-05
4.00611e-05
4.00617e-05
4.00623e-05
4.00636e-05
4.00631e-05
4.00702e-05
4.00514e-05
4.01117e-05
3.9987e-05
4.00945e-05
4.05315e-05
4.00609e-05
4.00611e-05
4.006e-05
4.0058e-05
4.00578e-05
4.00576e-05
4.0057e-05
4.00562e-05
4.00556e-05
4.0055e-05
4.00547e-05
4.00544e-05
4.00542e-05
4.00539e-05
4.00537e-05
4.00535e-05
4.00534e-05
4.00533e-05
4.00533e-05
4.00534e-05
4.00535e-05
4.00537e-05
4.00539e-05
4.00542e-05
4.00545e-05
4.00548e-05
4.0055e-05
4.00552e-05
4.00554e-05
4.00555e-05
4.00556e-05
4.00556e-05
4.00555e-05
4.00555e-05
4.00556e-05
4.0056e-05
4.00565e-05
4.00582e-05
4.00581e-05
4.00599e-05
4.00593e-05
4.00587e-05
4.00587e-05
4.00588e-05
4.00589e-05
4.00592e-05
4.00594e-05
4.00597e-05
4.00599e-05
4.00602e-05
4.00603e-05
4.00605e-05
4.00606e-05
4.00607e-05
4.00607e-05
4.00607e-05
4.00607e-05
4.00607e-05
4.00607e-05
4.00607e-05
4.00606e-05
4.00606e-05
4.00605e-05
4.00605e-05
4.00605e-05
4.00606e-05
4.00609e-05
4.00612e-05
4.00617e-05
4.00623e-05
4.00633e-05
4.00634e-05
4.00669e-05
4.00622e-05
4.00742e-05
4.00795e-05
3.99752e-05
4.02982e-05
4.00606e-05
4.00609e-05
4.00599e-05
4.0058e-05
4.00576e-05
4.00574e-05
4.00568e-05
4.0056e-05
4.00553e-05
4.00548e-05
4.00544e-05
4.00541e-05
4.00539e-05
4.00536e-05
4.00534e-05
4.00533e-05
4.00532e-05
4.00531e-05
4.00531e-05
4.00532e-05
4.00533e-05
4.00535e-05
4.00538e-05
4.0054e-05
4.00543e-05
4.00546e-05
4.00549e-05
4.00551e-05
4.00553e-05
4.00555e-05
4.00556e-05
4.00557e-05
4.00556e-05
4.00556e-05
4.00556e-05
4.00558e-05
4.00561e-05
4.00576e-05
4.00574e-05
4.00597e-05
4.00591e-05
4.00586e-05
4.00587e-05
4.00588e-05
4.0059e-05
4.00593e-05
4.00596e-05
4.00599e-05
4.00602e-05
4.00604e-05
4.00606e-05
4.00608e-05
4.00609e-05
4.0061e-05
4.00611e-05
4.00612e-05
4.00612e-05
4.00612e-05
4.00612e-05
4.00611e-05
4.00611e-05
4.0061e-05
4.0061e-05
4.00609e-05
4.00609e-05
4.0061e-05
4.00611e-05
4.00614e-05
4.00618e-05
4.00623e-05
4.00631e-05
4.00637e-05
4.0065e-05
4.00666e-05
4.00627e-05
4.00916e-05
4.00107e-05
4.01247e-05
4.00604e-05
4.00607e-05
4.00598e-05
4.0058e-05
4.00575e-05
4.00572e-05
4.00566e-05
4.00558e-05
4.00551e-05
4.00546e-05
4.00542e-05
4.00539e-05
4.00536e-05
4.00534e-05
4.00532e-05
4.00531e-05
4.0053e-05
4.0053e-05
4.0053e-05
4.00531e-05
4.00532e-05
4.00534e-05
4.00536e-05
4.00539e-05
4.00542e-05
4.00544e-05
4.00547e-05
4.0055e-05
4.00552e-05
4.00554e-05
4.00556e-05
4.00557e-05
4.00558e-05
4.00557e-05
4.00556e-05
4.00557e-05
4.0056e-05
4.00572e-05
4.0057e-05
4.00596e-05
4.0059e-05
4.00586e-05
4.00588e-05
4.00589e-05
4.00592e-05
4.00595e-05
4.00598e-05
4.00601e-05
4.00604e-05
4.00607e-05
4.00609e-05
4.00611e-05
4.00613e-05
4.00614e-05
4.00615e-05
4.00616e-05
4.00616e-05
4.00617e-05
4.00617e-05
4.00617e-05
4.00616e-05
4.00616e-05
4.00615e-05
4.00614e-05
4.00614e-05
4.00614e-05
4.00615e-05
4.00617e-05
4.0062e-05
4.00624e-05
4.0063e-05
4.00638e-05
4.00644e-05
4.00671e-05
4.00628e-05
4.00808e-05
4.00526e-05
4.00655e-05
4.00602e-05
4.00604e-05
4.00596e-05
4.00579e-05
4.00574e-05
4.0057e-05
4.00564e-05
4.00556e-05
4.00549e-05
4.00544e-05
4.0054e-05
4.00537e-05
4.00534e-05
4.00532e-05
4.0053e-05
4.00529e-05
4.00529e-05
4.00529e-05
4.00529e-05
4.0053e-05
4.00531e-05
4.00532e-05
4.00535e-05
4.00537e-05
4.0054e-05
4.00543e-05
4.00545e-05
4.00548e-05
4.00551e-05
4.00553e-05
4.00555e-05
4.00557e-05
4.00558e-05
4.00558e-05
4.00557e-05
4.00558e-05
4.00559e-05
4.00569e-05
4.00566e-05
4.00595e-05
4.00589e-05
4.00586e-05
4.00588e-05
4.0059e-05
4.00593e-05
4.00596e-05
4.006e-05
4.00603e-05
4.00606e-05
4.00609e-05
4.00612e-05
4.00614e-05
4.00616e-05
4.00617e-05
4.00619e-05
4.0062e-05
4.00621e-05
4.00621e-05
4.00622e-05
4.00622e-05
4.00622e-05
4.00622e-05
4.00621e-05
4.00621e-05
4.0062e-05
4.0062e-05
4.0062e-05
4.00621e-05
4.00623e-05
4.00627e-05
4.00631e-05
4.00638e-05
4.00644e-05
4.00664e-05
4.00651e-05
4.00718e-05
4.00702e-05
4.00616e-05
4.00599e-05
4.00602e-05
4.00594e-05
4.00578e-05
4.00572e-05
4.00568e-05
4.00561e-05
4.00554e-05
4.00547e-05
4.00542e-05
4.00538e-05
4.00535e-05
4.00532e-05
4.0053e-05
4.00529e-05
4.00528e-05
4.00528e-05
4.00527e-05
4.00528e-05
4.00528e-05
4.00529e-05
4.00531e-05
4.00533e-05
4.00535e-05
4.00538e-05
4.00541e-05
4.00543e-05
4.00546e-05
4.00549e-05
4.00551e-05
4.00554e-05
4.00556e-05
4.00558e-05
4.00559e-05
4.00558e-05
4.00558e-05
4.00558e-05
4.00566e-05
4.00564e-05
4.00593e-05
4.00589e-05
4.00586e-05
4.00589e-05
4.00591e-05
4.00594e-05
4.00598e-05
4.00602e-05
4.00605e-05
4.00609e-05
4.00612e-05
4.00615e-05
4.00617e-05
4.00619e-05
4.00621e-05
4.00622e-05
4.00624e-05
4.00625e-05
4.00626e-05
4.00626e-05
4.00627e-05
4.00627e-05
4.00627e-05
4.00627e-05
4.00627e-05
4.00626e-05
4.00626e-05
4.00626e-05
4.00627e-05
4.00628e-05
4.00631e-05
4.00634e-05
4.0064e-05
4.00646e-05
4.00658e-05
4.00664e-05
4.00683e-05
4.00725e-05
4.0069e-05
4.00596e-05
4.00598e-05
4.00591e-05
4.00576e-05
4.0057e-05
4.00565e-05
4.00558e-05
4.00551e-05
4.00545e-05
4.0054e-05
4.00536e-05
4.00533e-05
4.0053e-05
4.00529e-05
4.00527e-05
4.00527e-05
4.00526e-05
4.00526e-05
4.00526e-05
4.00527e-05
4.00527e-05
4.00529e-05
4.00531e-05
4.00533e-05
4.00536e-05
4.00538e-05
4.00541e-05
4.00544e-05
4.00546e-05
4.00549e-05
4.00552e-05
4.00554e-05
4.00557e-05
4.00558e-05
4.00559e-05
4.00558e-05
4.00558e-05
4.00563e-05
4.00563e-05
4.00591e-05
4.00587e-05
4.00586e-05
4.00589e-05
4.00592e-05
4.00595e-05
4.00599e-05
4.00603e-05
4.00607e-05
4.00611e-05
4.00614e-05
4.00617e-05
4.0062e-05
4.00622e-05
4.00624e-05
4.00626e-05
4.00627e-05
4.00629e-05
4.0063e-05
4.00631e-05
4.00632e-05
4.00632e-05
4.00632e-05
4.00633e-05
4.00632e-05
4.00632e-05
4.00632e-05
4.00633e-05
4.00633e-05
4.00634e-05
4.00636e-05
4.00639e-05
4.00643e-05
4.00649e-05
4.00657e-05
4.00667e-05
4.00679e-05
4.00705e-05
4.00732e-05
4.00594e-05
4.00595e-05
4.00589e-05
4.00574e-05
4.00567e-05
4.00562e-05
4.00555e-05
4.00548e-05
4.00542e-05
4.00537e-05
4.00533e-05
4.0053e-05
4.00528e-05
4.00527e-05
4.00525e-05
4.00525e-05
4.00524e-05
4.00524e-05
4.00524e-05
4.00525e-05
4.00526e-05
4.00527e-05
4.00529e-05
4.00531e-05
4.00533e-05
4.00536e-05
4.00538e-05
4.00541e-05
4.00544e-05
4.00547e-05
4.0055e-05
4.00553e-05
4.00555e-05
4.00557e-05
4.00559e-05
4.00559e-05
4.00558e-05
4.00561e-05
4.00561e-05
4.00589e-05
4.00586e-05
4.00585e-05
4.00589e-05
4.00592e-05
4.00596e-05
4.006e-05
4.00605e-05
4.00609e-05
4.00613e-05
4.00616e-05
4.0062e-05
4.00623e-05
4.00625e-05
4.00627e-05
4.00629e-05
4.00631e-05
4.00633e-05
4.00634e-05
4.00635e-05
4.00636e-05
4.00637e-05
4.00638e-05
4.00638e-05
4.00638e-05
4.00638e-05
4.00639e-05
4.00639e-05
4.00639e-05
4.00641e-05
4.00642e-05
4.00645e-05
4.00648e-05
4.00653e-05
4.0066e-05
4.00668e-05
4.00682e-05
4.00689e-05
4.00738e-05
4.00591e-05
4.00593e-05
4.00586e-05
4.00572e-05
4.00564e-05
4.00559e-05
4.00552e-05
4.00545e-05
4.00539e-05
4.00534e-05
4.0053e-05
4.00528e-05
4.00526e-05
4.00524e-05
4.00523e-05
4.00523e-05
4.00522e-05
4.00522e-05
4.00522e-05
4.00523e-05
4.00523e-05
4.00525e-05
4.00526e-05
4.00528e-05
4.00531e-05
4.00533e-05
4.00535e-05
4.00538e-05
4.00541e-05
4.00544e-05
4.00547e-05
4.0055e-05
4.00553e-05
4.00556e-05
4.00558e-05
4.00559e-05
4.00557e-05
4.00559e-05
4.0056e-05
4.00587e-05
4.00585e-05
4.00584e-05
4.00589e-05
4.00592e-05
4.00597e-05
4.00601e-05
4.00606e-05
4.00611e-05
4.00615e-05
4.00619e-05
4.00622e-05
4.00625e-05
4.00628e-05
4.0063e-05
4.00633e-05
4.00635e-05
4.00637e-05
4.00638e-05
4.0064e-05
4.00641e-05
4.00642e-05
4.00643e-05
4.00644e-05
4.00644e-05
4.00644e-05
4.00645e-05
4.00645e-05
4.00646e-05
4.00647e-05
4.00648e-05
4.00651e-05
4.00654e-05
4.00658e-05
4.00664e-05
4.0067e-05
4.00686e-05
4.00685e-05
4.00733e-05
4.00589e-05
4.0059e-05
4.00584e-05
4.0057e-05
4.00562e-05
4.00556e-05
4.00548e-05
4.00541e-05
4.00535e-05
4.00531e-05
4.00527e-05
4.00525e-05
4.00523e-05
4.00522e-05
4.00521e-05
4.0052e-05
4.0052e-05
4.0052e-05
4.0052e-05
4.0052e-05
4.00521e-05
4.00522e-05
4.00523e-05
4.00525e-05
4.00528e-05
4.0053e-05
4.00532e-05
4.00535e-05
4.00538e-05
4.00541e-05
4.00544e-05
4.00547e-05
4.0055e-05
4.00553e-05
4.00556e-05
4.00558e-05
4.00557e-05
4.00558e-05
4.0056e-05
4.00585e-05
4.00584e-05
4.00584e-05
4.00588e-05
4.00593e-05
4.00597e-05
4.00602e-05
4.00607e-05
4.00612e-05
4.00616e-05
4.0062e-05
4.00624e-05
4.00627e-05
4.00631e-05
4.00633e-05
4.00636e-05
4.00638e-05
4.0064e-05
4.00642e-05
4.00644e-05
4.00645e-05
4.00647e-05
4.00648e-05
4.00649e-05
4.0065e-05
4.0065e-05
4.00651e-05
4.00651e-05
4.00652e-05
4.00653e-05
4.00655e-05
4.00657e-05
4.0066e-05
4.00664e-05
4.00669e-05
4.00674e-05
4.0069e-05
4.00686e-05
4.00729e-05
4.00587e-05
4.00588e-05
4.00581e-05
4.00567e-05
4.00559e-05
4.00552e-05
4.00545e-05
4.00538e-05
4.00532e-05
4.00528e-05
4.00524e-05
4.00522e-05
4.0052e-05
4.00519e-05
4.00518e-05
4.00517e-05
4.00517e-05
4.00517e-05
4.00517e-05
4.00517e-05
4.00518e-05
4.00519e-05
4.0052e-05
4.00522e-05
4.00524e-05
4.00526e-05
4.00528e-05
4.00531e-05
4.00534e-05