/*--------------------------------*- C++ -*----------------------------------*\
| =========                 |                                                 |
| \\      /  F ield         | OpenFOAM: The Open Source CFD Toolbox           |
|  \\    /   O peration     | Version:  2312                                  |
|   \\  /    A nd           | Website:  www.openfoam.com                      |
|    \\/     M anipulation  |                                                 |
\*---------------------------------------------------------------------------*/
FoamFile
{
    version     2.0;
    format      ascii;
    arch        "LSB;label=32;scalar=64";
    class       surfaceScalarField;
    location    "200";
    object      phi;
}
// * * * * * * * * * * * * * * * * * * * * * * * * * * * * * * * * * * * * * //

dimensions      [0 3 -1 0 0 0 0];

oriented        oriented;

internalField   nonuniform List<scalar> 
21254
(
-0.232983
0.252588
-0.0196055
0.274591
-0.0220031
0.293548
-0.0189565
0.310486
-0.0169382
0.326489
-0.016003
0.339253
-0.0127636
0.349276
-0.0100235
0.357308
-0.00803213
0.362384
-0.00507542
0.365496
-0.00311238
0.366705
-0.00120858
0.365471
0.00123324
0.361921
0.0035506
0.355869
0.00605208
0.346925
0.00894375
0.334987
0.0119381
0.319293
0.0156937
0.299185
0.0201082
0.273537
0.0256481
0.241631
0.031906
0.202968
0.0386629
0.160714
0.0422537
0.122614
0.0381007
0.0985013
0.0241129
0.0933936
0.00510758
0.102649
-0.00925586
0.116383
-0.0137336
0.128733
-0.0123497
0.137706
-0.00897328
0.143233
-0.0055266
0.145844
-0.00261108
0.14571
0.000133203
0.142753
0.0029575
0.137102
0.00565143
0.128487
0.00861566
0.11588
0.0126067
0.097388
0.0184938
0.0690044
0.0283881
0.0674586
0.00161824
-0.209903
-0.0230794
-0.185966
-0.0239376
-0.156589
-0.0293764
-0.124405
-0.0321843
-0.0905238
-0.0338811
-0.0556221
-0.0349017
-0.021295
-0.034327
0.0105256
-0.0318206
0.0394605
-0.0289348
0.0650057
-0.0255452
0.0869251
-0.0219193
0.105578
-0.0186533
0.121261
-0.015683
0.134322
-0.0130601
0.145477
-0.0111558
0.15505
-0.00957224
0.163515
-0.00846527
0.171104
-0.00758904
0.178125
-0.00702134
0.184698
-0.00657249
0.19099
-0.00629189
0.196985
-0.00599502
0.202607
-0.00562244
0.207204
-0.0045967
0.210595
-0.00339155
0.213107
-0.00251205
0.214796
-0.00168886
0.215891
-0.0010953
0.216533
-0.000641252
0.21671
-0.000177815
0.216209
0.000501482
0.214943
0.00126587
0.212912
0.00203131
0.210153
0.00275839
0.206583
0.00357057
0.201864
0.0047186
0.195027
0.00683634
0.181147
0.0138793
0.161201
0.0199461
-0.212452
0.233951
-0.0411051
0.255969
-0.0440206
0.278989
-0.0419764
0.300499
-0.0384483
0.32154
-0.0370442
0.341126
-0.0323496
0.358856
-0.0277536
0.375014
-0.0241899
0.38923
-0.0192912
0.401583
-0.015466
0.412299
-0.0119239
0.421817
-0.00828513
0.430492
-0.00512432
0.438385
-0.00184112
0.445292
0.00203692
0.450779
0.00645082
0.45452
0.0119526
0.456172
0.018457
0.454417
0.0274026
0.448143
0.03818
0.434965
0.0518406
0.41335
0.0638695
0.383052
0.0683983
0.348753
0.0584124
0.316738
0.0371227
0.288905
0.0185769
0.265012
0.0101589
0.24519
0.00747209
0.229773
0.00644319
0.218323
0.0059241
0.209144
0.00656735
0.200668
0.00860915
0.19187
0.0117561
0.181954
0.0155677
0.170175
0.0203948
0.155035
0.0277471
0.13533
0.0382013
0.101646
0.0620767
0.07292
0.030388
-0.190501
-0.0450301
-0.16701
-0.0474284
-0.139507
-0.0568792
-0.110415
-0.0612763
-0.0795156
-0.0647809
-0.047203
-0.0672144
-0.0149753
-0.0665547
0.0158213
-0.0626171
0.0439305
-0.0570439
0.0689441
-0.0505587
0.0906914
-0.0436666
0.109549
-0.037511
0.125969
-0.0321028
0.140174
-0.0272646
0.152614
-0.023596
0.163592
-0.0205504
0.173401
-0.0182747
0.18235
-0.0165376
0.190694
-0.0153656
0.198545
-0.0144232
0.206066
-0.0138124
0.213327
-0.013256
0.220259
-0.0125554
0.226406
-0.0107429
0.231492
-0.00847779
0.235707
-0.00672737
0.238954
-0.00493593
0.241141
-0.00328224
0.24222
-0.00172019
0.2423
-0.000256881
0.241605
0.0011967
0.240319
0.00255128
0.238462
0.00388875
0.236029
0.00519071
0.232944
0.00665585
0.228908
0.00875457
0.223939
0.0118055
0.21355
0.0242667
0.195379
0.0381173
-0.206249
0.227947
-0.0628027
0.249798
-0.0658712
0.27339
-0.0655691
0.294959
-0.0600171
0.315463
-0.057548
0.335071
-0.0519577
0.352485
-0.0451679
0.368097
-0.0398016
0.381458
-0.032652
0.392831
-0.0268387
0.402181
-0.0212742
0.409637
-0.0157416
0.415049
-0.0105364
0.418895
-0.00568715
0.421161
-0.000228691
0.422872
0.00473943
0.424119
0.0107058
0.425821
0.0167547
0.428394
0.0248306
0.43251
0.0340636
0.438189
0.0461614
0.443566
0.0584929
0.444962
0.0670024
0.439449
0.0639246
0.427923
0.0486486
0.412816
0.0336844
0.395175
0.0277996
0.374478
0.0281692
0.350477
0.030445
0.324296
0.0321053
0.298263
0.0325994
0.274511
0.0323616
0.253608
0.0326589
0.234469
0.0347074
0.215399
0.039465
0.19426
0.0488855
0.169461
0.0630003
0.132057
0.0994824
0.089103
0.0733677
-0.184412
-0.0668671
-0.160488
-0.0713524
-0.131875
-0.0854926
-0.102123
-0.0910288
-0.071034
-0.0958696
-0.0387622
-0.0994862
-0.00688125
-0.0984356
0.0228818
-0.0923801
0.0501444
-0.0843064
0.0748236
-0.075238
0.0965922
-0.0654352
0.115628
-0.0565468
0.132313
-0.0487881
0.146925
-0.041876
0.15977
-0.0364414
0.171188
-0.0319687
0.181445
-0.0285312
0.190806
-0.0258991
0.19948
-0.0240398
0.207632
-0.0225748
0.215447
-0.0216276
0.222939
-0.0207479
0.23001
-0.0196264
0.236359
-0.017092
0.241697
-0.0138154
0.246135
-0.0111662
0.249743
-0.00854415
0.25256
-0.00609858
0.254648
-0.00380881
0.256001
-0.00160988
0.256676
0.000522151
0.256634
0.00259283
0.255882
0.00464088
0.254346
0.00672649
0.251942
0.00906034
0.248314
0.0123817
0.243143
0.0169767
0.232817
0.0345924
0.214908
0.0560252
-0.198694
0.221374
-0.0854828
0.244139
-0.0886355
0.269172
-0.0906029
0.292028
-0.082873
0.314192
-0.079712
0.33545
-0.0732155
0.35498
-0.0646978
0.372607
-0.0574291
0.388544
-0.0485888
0.402571
-0.040865
0.414798
-0.033502
0.42524
-0.0261828
0.433959
-0.0192556
0.441029
-0.0127576
0.446757
-0.00595663
0.450601
0.000896062
0.452664
0.00864268
0.452714
0.0167047
0.451284
0.02626
0.448827
0.0365215
0.44654
0.0484483
0.445667
0.0593659
0.445771
0.0668986
0.444716
0.0649797
0.440659
0.0527053
0.434163
0.0401809
0.426556
0.0354057
0.418168
0.0365576
0.408015
0.0405976
0.394443
0.0456772
0.375942
0.0511006
0.352146
0.0561572
0.324715
0.0600902
0.296265
0.0631575
0.268261
0.0674698
0.239573
0.0775738
0.208143
0.0944319
0.165576
0.142054
0.11481
0.124159
-0.176301
-0.0892603
-0.1523
-0.0953537
-0.123184
-0.114608
-0.0932957
-0.120917
-0.0621375
-0.127028
-0.029754
-0.13187
0.00203983
-0.130229
0.0314286
-0.121769
0.0582322
-0.11111
0.0825435
-0.0995492
0.104014
-0.0869056
0.122889
-0.0754221
0.1396
-0.0654991
0.154399
-0.0566751
0.167607
-0.0496491
0.179448
-0.0438095
0.190216
-0.0392996
0.20009
-0.035773
0.2093
-0.0332498
0.217985
-0.0312589
0.226253
-0.0298962
0.234172
-0.0286667
0.24168
-0.0271346
0.248455
-0.0238671
0.254248
-0.0196083
0.25912
-0.0160385
0.263124
-0.0125481
0.266312
-0.00928614
0.268715
-0.00621169
0.270403
-0.00329755
0.271407
-0.000482044
0.27175
0.00225
0.271425
0.00496588
0.270415
0.00773658
0.268596
0.0108792
0.265595
0.015382
0.260847
0.021724
0.251073
0.0443653
0.23261
0.0744886
-0.194882
0.218385
-0.108986
0.242021
-0.112272
0.268448
-0.11703
0.292045
-0.10647
0.315187
-0.102854
0.337484
-0.0955122
0.357828
-0.0850417
0.376324
-0.0759255
0.393261
-0.065526
0.407986
-0.0555892
0.420877
-0.0463929
0.431866
-0.0371718
0.441229
-0.0286187
0.448646
-0.0201748
0.454264
-0.0115752
0.458142
-0.00298143
0.460554
0.00623066
0.461623
0.0156355
0.461215
0.0266684
0.459748
0.0379883
0.457314
0.0508827
0.454307
0.0623728
0.450801
0.0704042
0.446146
0.0696348
0.439732
0.0591191
0.432024
0.0478884
0.424175
0.0432544
0.416912
0.0438216
0.410293
0.0472166
0.404032
0.0519389
0.397139
0.0579928
0.387677
0.0656192
0.373047
0.0747207
0.351353
0.0848515
0.322972
0.0958508
0.289609
0.110936
0.251818
0.132223
0.203452
0.19042
0.14707
0.180557
-0.171437
-0.112705
-0.146708
-0.120083
-0.116327
-0.144988
-0.0855857
-0.151659
-0.0536937
-0.15892
-0.0206589
-0.164904
0.0115398
-0.162428
0.040973
-0.151202
0.0676461
-0.137783
0.0917487
-0.123652
0.112981
-0.108138
0.131689
-0.0941306
0.148375
-0.0821848
0.163257
-0.071557
0.176652
-0.0630445
0.188824
-0.0559815
0.19995
-0.0504252
0.210214
-0.0460366
0.21981
-0.0428459
0.228877
-0.0403257
0.237505
-0.0385251
0.245737
-0.0368979
0.253533
-0.0349313
0.260619
-0.0309527
0.26673
-0.0257191
0.271898
-0.0212067
0.276163
-0.0168136
0.279579
-0.0127016
0.282165
-0.00879842
0.283958
-0.00509043
0.285001
-0.00152489
0.28536
0.0018907
0.285043
0.00528276
0.284034
0.00874596
0.282308
0.0126045
0.27953
0.0181602
0.275168
0.0260859
0.266583
0.0529503
0.248703
0.092368
-0.191734
0.216253
-0.133505
0.241211
-0.13723
0.269016
-0.144835
0.293819
-0.131273
0.317984
-0.127019
0.34165
-0.119178
0.362969
-0.106362
0.382757
-0.0957134
0.400706
-0.0834745
0.416699
-0.0715823
0.430966
-0.0606594
0.443321
-0.0495276
0.453996
-0.0392933
0.462984
-0.0291629
0.470156
-0.0187476
0.475875
-0.00870011
0.479742
0.00236354
0.481878
0.0134995
0.48247
0.0260771
0.481487
0.0389705
0.47916
0.0532098
0.475742
0.0657913
0.470978
0.0751683
0.464421
0.0761914
0.455897
0.0676433
0.446028
0.0577575
0.435816
0.0534664
0.425879
0.0537586
0.416401
0.0566944
0.407532
0.0608081
0.399523
0.0660023
0.392361
0.0727813
0.385315
0.0817667
0.376015
0.094152
0.360344
0.111522
0.334439
0.136842
0.297145
0.169519
0.245264
0.242305
0.18432
0.24152
-0.167325
-0.137114
-0.141781
-0.145627
-0.110094
-0.176676
-0.0782102
-0.183542
-0.0453158
-0.191814
-0.0113519
-0.198868
0.0215698
-0.19535
0.0513709
-0.181003
0.078156
-0.164568
0.102214
-0.14771
0.123303
-0.129226
0.141829
-0.112657
0.158394
-0.0987495
0.17326
-0.0864233
0.186736
-0.0765197
0.199078
-0.0683243
0.210452
-0.0617984
0.221051
-0.056636
0.231003
-0.0527979
0.240437
-0.0497597
0.249444
-0.0475322
0.258045
-0.045499
0.266186
-0.0430717
0.27368
-0.038447
0.280195
-0.0322346
0.285721
-0.0267321
0.290348
-0.0214413
0.294075
-0.0164284
0.296944
-0.0116669
0.298986
-0.00713303
0.300247
-0.00278526
0.300754
0.00138372
0.300515
0.00552111
0.299556
0.00970524
0.297738
0.0144228
0.294822
0.0210761
0.290134
0.0307731
0.281732
0.0613515
0.264274
0.109826
-0.189903
0.215751
-0.159353
0.24175
-0.163229
0.271121
-0.174206
0.297193
-0.157345
0.322606
-0.152431
0.34734
-0.143913
0.369817
-0.128838
0.39044
-0.116337
0.409416
-0.10245
0.426321
-0.0884875
0.441386
-0.0757247
0.45475
-0.0628908
0.466283
-0.0508265
0.476058
-0.038938
0.484148
-0.0268377
0.490384
-0.0149364
0.494952
-0.0022045
0.497843
0.010609
0.49919
0.0247295
0.499082
0.0390787
0.497719
0.0545729
0.495162
0.0683485
0.491304
0.079026
0.485427
0.0820687
0.477327
0.0757425
0.467485
0.0676001
0.456819
0.0641318
0.445902
0.0646758
0.434864
0.0677331
0.423693
0.0719796
0.41256
0.0771341
0.401798
0.0835432
0.391876
0.0916888
0.383064
0.102965
0.374348
0.120238
0.360969
0.150221
0.334873
0.195615
0.287593
0.289585
0.225133
0.303991
-0.164282
-0.162734
-0.137628
-0.172281
-0.104483
-0.209821
-0.0712825
-0.216743
-0.0371811
-0.225916
-0.00196925
-0.23408
0.0319408
-0.22926
0.0624138
-0.211476
0.0895602
-0.191715
0.11379
-0.17194
0.134835
-0.150271
0.153243
-0.131065
0.169691
-0.115197
0.18448
-0.101212
0.197947
-0.0899874
0.210378
-0.0807551
0.221944
-0.0733643
0.232787
-0.0674791
0.243042
-0.0630522
0.2528
-0.059518
0.262133
-0.0568653
0.271054
-0.0544202
0.279539
-0.0515565
0.287342
-0.0462498
0.294233
-0.0391257
0.30013
-0.0326296
0.305061
-0.0263724
0.309079
-0.0204461
0.31218
-0.0147683
0.314428
-0.00938137
0.315828
-0.00418471
0.316441
0.000770075
0.316283
0.0056791
0.315312
0.0106761
0.313487
0.0162481
0.310479
0.0240837
0.305588
0.0356643
0.297172
0.0697678
0.280232
0.126765
-0.188759
0.215942
-0.186536
0.243373
-0.19066
0.274425
-0.205258
0.301699
-0.184619
0.328399
-0.179132
0.354383
-0.169896
0.377876
-0.152331
0.399707
-0.138168
0.419498
-0.122241
0.437339
-0.106328
0.453458
-0.0918437
0.467696
-0.077129
0.480133
-0.0632641
0.490898
-0.0497028
0.499936
-0.0358757
0.507225
-0.0222252
0.512826
-0.00780544
0.516728
0.00670705
0.518903
0.0225546
0.519472
0.0385101
0.51865
0.0553949
0.516463
0.0705349
0.512851
0.0826384
0.507443
0.0874768
0.499886
0.0832996
0.490525
0.0769617
0.480163
0.0744933
0.469317
0.0755219
0.458061
0.0789893
0.446372
0.083668
0.434154
0.0893527
0.421466
0.0962311
0.408431
0.104724
0.395578
0.115818
0.383768
0.132047
0.373201
0.160789
0.358386
0.210432
0.323958
0.324015
0.266413
0.361552
-0.161906
-0.189587
-0.134091
-0.200096
-0.09923
-0.244683
-0.0645052
-0.251468
-0.0289643
-0.261457
0.00761598
-0.27066
0.042747
-0.264391
0.0741113
-0.24284
0.101812
-0.219415
0.126353
-0.196481
0.147498
-0.171416
0.165851
-0.149418
0.182197
-0.131544
0.196884
-0.115899
0.210291
-0.103394
0.222763
-0.0932277
0.234418
-0.0850185
0.245436
-0.0784971
0.255915
-0.073532
0.26595
-0.0695529
0.27557
-0.0664852
0.284819
-0.0636693
0.293633
-0.0603697
0.301804
-0.0544215
0.309066
-0.0463879
0.315333
-0.038896
0.32062
-0.0316593
0.32496
-0.0247864
0.328343
-0.0181519
0.330814
-0.0118522
0.332423
-0.00579363
0.333177
1.66455e-05
0.333112
0.00574375
0.332193
0.0115953
0.330317
0.0181236
0.327208
0.0271929
0.322128
0.0407434
0.31359
0.0783054
0.297164
0.14319
-0.188445
0.216998
-0.215089
0.245877
-0.219539
0.278629
-0.23801
0.307293
-0.213283
0.335461
-0.207299
0.362801
-0.197236
0.387512
-0.177043
0.410229
-0.160885
0.431131
-0.143142
0.449804
-0.125002
0.466632
-0.108671
0.481687
-0.0921837
0.494987
-0.0765645
0.506552
-0.061268
0.516397
-0.0457199
0.524564
-0.0303932
0.530945
-0.0141857
0.535551
0.00210081
0.538445
0.0196603
0.539687
0.0372684
0.539455
0.0556274
0.537791
0.072198
0.534606
0.0858237
0.529622
0.0924607
0.522574
0.0903481
0.51368
0.0858547
0.503618
0.0845558
0.492961
0.0861786
0.481843
0.0901076
0.470182
0.0953301
0.457912
0.101623
0.44493
0.109212
0.43108
0.118575
0.416263
0.130635
0.40076
0.14755
0.385855
0.175694
0.373064
0.223222
0.350684
0.346396
0.303274
0.408969
-0.160103
-0.21793
-0.130931
-0.229268
-0.0942894
-0.281324
-0.0579962
-0.287761
-0.0207999
-0.298653
0.0173657
-0.308826
0.053972
-0.300997
0.0863978
-0.275266
0.114833
-0.24785
0.139857
-0.221506
0.161219
-0.192778
0.179619
-0.167818
0.195914
-0.147838
0.210508
-0.130493
0.223836
-0.116723
0.236259
-0.10565
0.247965
-0.0967243
0.259086
-0.0896184
0.269731
-0.0841774
0.279991
-0.0798127
0.2899
-0.0763937
0.299421
-0.0731904
0.30854
-0.0694888
0.317061
-0.0629424
0.324709
-0.0540362
0.331325
-0.0455114
0.336962
-0.0372973
0.341598
-0.0294218
0.345275
-0.0218296
0.347992
-0.0145689
0.349782
-0.00758345
0.350685
-0.000886718
0.350698
0.00573012
0.349818
0.0124754
0.347941
0.0200009
0.344757
0.0303766
0.339501
0.0459995
0.330937
0.0868696
0.315099
0.159029
-0.188558
0.218724
-0.245255
0.249153
-0.249967
0.283799
-0.272656
0.313922
-0.243407
0.343382
-0.236759
0.372195
-0.22605
0.39808
-0.202927
0.421937
-0.184742
0.443826
-0.165031
0.463381
-0.144557
0.481067
-0.126358
0.497003
-0.108119
0.511019
-0.09058
0.523313
-0.0735627
0.534035
-0.0564414
0.542925
-0.0392835
0.55011
-0.0213708
0.555488
-0.00327643
0.559195
0.0159533
0.561197
0.035266
0.561482
0.0553428
0.560298
0.0733822
0.557485
0.0886365
0.552867
0.0970785
0.546191
0.0970241
0.537589
0.0944569
0.527742
0.094403
0.517175
0.0967459
0.505998
0.101284
0.494282
0.107046
0.481945
0.11396
0.468896
0.122261
0.45498
0.132491
0.439912
0.145703
0.423337
0.164126
0.404986
0.194046
0.388231
0.239979
0.370411
0.364219
0.3321
0.447293
-0.15884
-0.247647
-0.128201
-0.259907
-0.0895961
-0.319929
-0.0514412
-0.325916
-0.0125558
-0.337538
0.0274523
-0.348834
0.0656018
-0.339146
0.0992761
-0.30894
0.128617
-0.277191
0.154292
-0.24718
0.175992
-0.214478
0.194509
-0.186335
0.210816
-0.164145
0.22534
-0.145017
0.238578
-0.129961
0.250944
-0.118015
0.262629
-0.10841
0.273793
-0.100782
0.284575
-0.0949589
0.295008
-0.0902464
0.305105
-0.0864906
0.314907
-0.0829922
0.324333
-0.0789147
0.333184
-0.071794
0.341181
-0.062033
0.348181
-0.0525112
0.354151
-0.0432672
0.359129
-0.0344002
0.36309
-0.0257907
0.366059
-0.0175383
0.368076
-0.00959965
0.369124
-0.00193477
0.369258
0.00559539
0.368436
0.0132981
0.366539
0.0218971
0.363263
0.0336526
0.357884
0.0513782
0.34931
0.0954432
0.334036
0.174302
-0.189278
0.221017
-0.276995
0.253028
-0.281978
0.289605
-0.309233
0.32141
-0.275211
0.352487
-0.267836
0.382775
-0.256338
0.40981
-0.229962
0.434898
-0.20983
0.457825
-0.187958
0.478325
-0.165056
0.496807
-0.14484
0.513384
-0.124697
0.528205
-0.1054
0.54135
-0.0867076
0.552668
-0.0677604
0.562341
-0.0489557
0.57025
-0.0292797
0.576411
-0.00943758
0.580755
0.0116086
0.583378
0.0326437
0.584291
0.0544293
0.583542
0.0741316
0.581147
0.0910312
0.576939
0.101287
0.570691
0.103272
0.56251
0.102639
0.552878
0.104035
0.542318
0.107306
0.531096
0.112506
0.51916
0.118982
0.506569
0.126552
0.493278
0.135551
0.47916
0.146609
0.463982
0.160882
0.447366
0.180742
0.42826
0.213151
0.407731
0.260508
0.388782
0.383168
0.354107
0.481974
-0.157885
-0.27904
-0.125734
-0.292057
-0.0850511
-0.360613
-0.0449609
-0.366006
-0.00410724
-0.378392
0.0377777
-0.390719
0.0776991
-0.379068
0.112773
-0.344014
0.143189
-0.307606
0.169591
-0.273583
0.191768
-0.236655
0.210511
-0.205078
0.226903
-0.180536
0.241389
-0.159503
0.254549
-0.143122
0.266831
-0.130298
0.278469
-0.120048
0.289651
-0.111963
0.300473
-0.105781
0.311029
-0.100802
0.321337
-0.0967994
0.331367
-0.0930219
0.341052
-0.0885996
0.350234
-0.0809761
0.358582
-0.0703809
0.365934
-0.0598633
0.372271
-0.049604
0.37757
-0.0396992
0.381845
-0.0300661
0.385075
-0.0207679
0.387289
-0.0118139
0.38853
-0.00317569
0.38877
0.00535487
0.388011
0.0140571
0.386105
0.0238025
0.382777
0.0369807
0.377264
0.0568913
0.368702
0.104006
0.35406
0.188944
-0.190308
0.223848
-0.310535
0.25762
-0.315749
0.296238
-0.347852
0.329649
-0.308622
0.362341
-0.300528
0.394217
-0.288214
0.42276
-0.258505
0.448988
-0.236058
0.472993
-0.211963
0.494401
-0.186465
0.513786
-0.164226
0.531233
-0.142143
0.546678
-0.120845
0.560453
-0.100483
0.572552
-0.0798597
0.582919
-0.0593222
0.591492
-0.0378523
0.598288
-0.0162337
0.6033
0.00659651
0.606571
0.0293729
0.608076
0.0529238
0.607857
0.0743509
0.60589
0.092998
0.602075
0.105101
0.596229
0.109119
0.588426
0.110441
0.579046
0.113414
0.568605
0.117747
0.557296
0.123815
0.545193
0.131085
0.532303
0.139442
0.518619
0.149235
0.504102
0.161126
0.488527
0.176457
0.471675
0.197594
0.452726
0.2321
0.430636
0.2826
0.409149
0.404657
0.374613
0.516521
-0.157274
-0.312074
-0.123394
-0.325938
-0.080572
-0.403435
-0.038385
-0.408193
0.00451549
-0.421293
0.0484548
-0.434658
0.0903279
-0.420941
0.126909
-0.380595
0.158506
-0.339204
0.18582
-0.300896
0.208582
-0.259418
0.22765
-0.224146
0.244158
-0.197045
0.258667
-0.174011
0.271769
-0.156224
0.283974
-0.142503
0.295532
-0.131606
0.306677
-0.123108
0.317539
-0.116643
0.328168
-0.111431
0.338605
-0.107236
0.348822
-0.103239
0.358785
-0.0985633
0.36827
-0.0904607
0.376958
-0.0790689
0.384664
-0.0675695
0.39134
-0.0562802
0.396986
-0.0453455
0.401545
-0.0346248
0.405058
-0.024281
0.407508
-0.0142642
0.408918
-0.00458529
0.409304
0.00496894
0.408597
0.0147636
0.406709
0.0256906
0.403317
0.0403722
0.397697
0.0625113
0.389209
0.112493
0.375208
0.202944
-0.191827
0.227081
-0.345789
0.262715
-0.351383
0.303495
-0.388632
0.338762
-0.34389
0.37321
-0.334976
0.406731
-0.321735
0.436698
-0.288471
0.464264
-0.263624
0.489337
-0.237036
0.511737
-0.208864
0.531964
-0.184453
0.550156
-0.160335
0.566426
-0.137115
0.580914
-0.114971
0.593637
-0.0925823
0.604604
-0.0702896
0.613849
-0.0470976
0.621331
-0.023715
0.626976
0.000951314
0.630771
0.0255779
0.632823
0.0508718
0.633063
0.0741102
0.631524
0.0945377
0.628164
0.108461
0.622816
0.114466
0.615405
0.117853
0.606333
0.122486
0.596005
0.128075
0.584674
0.135146
0.572433
0.143327
0.559292
0.152583
0.545239
0.163288
0.530225
0.17614
0.514102
0.19258
0.496677
0.21502
0.477555
0.251221
0.455204
0.304951
0.432059
0.427802
0.39721
0.551373
-0.156874
-0.347027
-0.121328
-0.361483
-0.0761372
-0.448626
-0.0317548
-0.452575
0.0133942
-0.466441
0.0596037
-0.480868
0.103451
-0.464788
0.141741
-0.418885
0.174645
-0.372108
0.202973
-0.329223
0.226416
-0.282861
0.245894
-0.243624
0.262639
-0.21379
0.277218
-0.188591
0.29029
-0.169296
0.302423
-0.154636
0.313901
-0.143084
0.324983
-0.13419
0.335818
-0.127478
0.346494
-0.122107
0.357024
-0.117767
0.367416
-0.11363
0.377593
-0.108741
0.387374
-0.100241
0.39638
-0.0880746
0.404426
-0.0756162
0.411447
-0.0633009
0.417402
-0.0513009
0.422286
-0.0395081
0.426077
-0.0280721
0.428773
-0.0169605
0.430388
-0.00620104
0.430905
0.00445241
0.430289
0.0153794
0.428407
0.0275731
0.424992
0.0437869
0.419294
0.068209
0.410845
0.120942
0.397529
0.21626
-0.193582
0.230785
-0.382991
0.268386
-0.388985
0.311468
-0.431714
0.348629
-0.38105
0.384863
-0.37121
0.420147
-0.357019
0.451666
-0.31999
0.480552
-0.292511
0.506863
-0.263347
0.530266
-0.232267
0.551466
-0.205653
0.57045
-0.179319
0.587439
-0.154104
0.602609
-0.13014
0.615882
-0.105855
0.627535
-0.0819428
0.637401
-0.056964
0.645469
-0.0317828
0.651739
-0.00531859
0.656155
0.0211625
0.658711
0.0483151
0.659453
0.0733686
0.658363
0.0956274
0.655418
0.111407
0.650485
0.119399
0.64348
0.124858
0.634739
0.131227
0.624596
0.138218
0.613286
0.146457
0.60093
0.155682
0.587549
0.165964
0.573167
0.177671
0.557689
0.191618
0.541036
0.209233
0.522943
0.233113
0.503218
0.270947
0.480632
0.327538
0.456837
0.451599
0.422315
0.585903
-0.156845
-0.383764
-0.119256
-0.399073
-0.0716802
-0.496201
-0.0249187
-0.499337
0.0225493
-0.513909
0.0710972
-0.529416
0.117213
-0.510903
0.157296
-0.458968
0.191678
-0.40649
0.221119
-0.358665
0.245354
-0.307095
0.265314
-0.263584
0.282348
-0.230824
0.297044
-0.203286
0.310115
-0.182367
0.322203
-0.166724
0.333608
-0.154489
0.344597
-0.145179
0.355387
-0.138268
0.366073
-0.132793
0.376669
-0.128363
0.387179
-0.12414
0.397566
-0.119128
0.407604
-0.110279
0.416909
-0.0973793
0.425279
-0.0839862
0.432634
-0.0706556
0.438931
-0.0575984
0.444127
-0.0447045
0.448203
-0.0321477
0.451142
-0.0199002
0.45295
-0.00800908
0.453625
0.00377751
0.453101
0.0159036
0.45125
0.0294237
0.447807
0.0472304
0.442063
0.0739519
0.433741
0.129263
0.421084
0.228918
-0.195646
0.234956
-0.422302
0.274584
-0.428613
0.320082
-0.477212
0.359203
-0.42017
0.397374
-0.409382
0.434615
-0.394261
0.467667
-0.353041
0.498004
-0.322847
0.525678
-0.291021
0.55019
-0.256779
0.572285
-0.227748
0.592126
-0.19916
0.609755
-0.171733
0.625608
-0.145994
0.63964
-0.119887
0.651863
-0.0941659
0.662329
-0.0674305
0.670957
-0.0404107
0.677693
-0.0120546
0.682632
0.0162244
0.685728
0.0452183
0.68689
0.0722071
0.686244
0.0962736
0.683738
0.113912
0.679264
0.123874
0.672729
0.131393
0.664288
0.139669
0.654346
0.14816
0.643127
0.157676
0.630695
0.168115
0.617126
0.179533
0.602419
0.192378
0.586562
0.207475
0.569386
0.226409
0.550645
0.251854
0.530173
0.291418
0.507111
0.350601
0.482942
0.475768
0.449318
0.619529
-0.156903
-0.422507
-0.117431
-0.438545
-0.0671921
-0.54644
-0.0179423
-0.548587
0.0320211
-0.563873
0.0831418
-0.580536
0.131555
-0.559316
0.173625
-0.501038
0.209537
-0.442402
0.240248
-0.389376
0.265347
-0.332194
0.285918
-0.284155
0.303315
-0.248221
0.318193
-0.218165
0.331324
-0.195498
0.343367
-0.178767
0.354688
-0.165811
0.365612
-0.156103
0.376332
-0.148988
0.386982
-0.143442
0.397607
-0.138988
0.408228
-0.134761
0.418784
-0.129684
0.429053
-0.120547
0.438655
-0.106982
0.447329
-0.0926605
0.455005
-0.0783314
0.461613
-0.0642061
0.467121
-0.0502131
0.471473
-0.036499
0.474675
-0.0231028
0.476712
-0.0100463
0.477531
0.00295833
0.477126
0.0163093
0.475325
0.0312248
0.47187
0.0506855
0.466109
0.0797123
0.457885
0.137487
0.44593
0.240873
-0.198071
0.239543
-0.463774
0.281303
-0.470373
0.329319
-0.525228
0.370511
-0.461362
0.410804
-0.449675
0.450005
-0.433462
0.484767
-0.387804
0.516667
-0.354747
0.545643
-0.319998
0.571259
-0.282395
0.594356
-0.250844
0.61508
-0.219885
0.633588
-0.190241
0.650079
-0.162485
0.664703
-0.134511
0.677511
-0.106974
0.688524
-0.0784436
0.697696
-0.0495824
0.705056
-0.0194152
0.710469
0.0108116
0.713991
0.0416965
0.715647
0.0705517
0.715397
0.0965233
0.713311
0.115999
0.709257
0.127927
0.703147
0.137503
0.695092
0.147723
0.685381
0.157871
0.674238
0.168819
0.661765
0.180588
0.648043
0.193255
0.633074
0.207348
0.616805
0.223743
0.59914
0.244075
0.579836
0.271158
0.558683
0.312572
0.534915
0.37437
0.510321
0.500364
0.477718
0.652136
-0.157161
-0.463417
-0.11554
-0.480166
-0.0625947
-0.599385
-0.0107116
-0.60047
0.0419018
-0.616486
0.0957152
-0.634349
0.146633
-0.610234
0.190782
-0.545187
0.2284
-0.48002
0.260442
-0.421418
0.28654
-0.358292
0.307763
-0.305378
0.325583
-0.266041
0.340706
-0.233288
0.353927
-0.208718
0.365977
-0.190817
0.377232
-0.177066
0.388066
-0.166936
0.398709
-0.159631
0.409315
-0.154048
0.419936
-0.14961
0.430612
-0.145437
0.441315
-0.140387
0.451819
-0.131052
0.46167
-0.116833
0.470626
-0.101617
0.478607
-0.0863118
0.485527
-0.0711268
0.491344
-0.0560296
0.495997
-0.0411519
0.499458
-0.0265638
0.501695
-0.0122834
0.502709
0.00194366
0.50241
0.0166079
0.500674
0.0329608
0.497232
0.0541276
0.491469
0.0854745
0.483408
0.145548
0.472175
0.252106
-0.200704
0.2444
-0.50747
0.288493
-0.514466
0.339193
-0.575929
0.382623
-0.504791
0.425081
-0.492133
0.466322
-0.474703
0.502945
-0.424427
0.536461
-0.388263
0.566825
-0.350361
0.593679
-0.309249
0.617915
-0.275081
0.639503
-0.241472
0.658783
-0.209521
0.676008
-0.17971
0.691234
-0.149737
0.704642
-0.120381
0.716189
-0.0899906
0.725911
-0.059304
0.733712
-0.0272169
0.73964
0.00488376
0.743602
0.0377352
0.745641
0.0685118
0.745832
0.096333
0.744149
0.117681
0.740555
0.131521
0.734855
0.143204
0.727161
0.155416
0.717707
0.167325
0.706674
0.179852
0.694214
0.193048
0.680357
0.207111
0.665141
0.222564
0.64852
0.240364
0.630389
0.262206
0.610556
0.29099
0.588739
0.334388
0.564298
0.398811
0.53916
0.525502
0.507426
0.683871
-0.157569
-0.506552
-0.113734
-0.524001
-0.0579174
-0.655202
-0.00319684
-0.655191
0.0521963
-0.671879
0.108823
-0.690976
0.162452
-0.663862
0.208793
-0.591528
0.24825
-0.519477
0.281738
-0.454906
0.308891
-0.385445
0.330857
-0.327344
0.349198
-0.284382
0.364615
-0.248704
0.377975
-0.222079
0.390069
-0.202911
0.401289
-0.188287
0.412047
-0.177694
0.422603
-0.170187
0.433134
-0.164579
0.443742
-0.160218
0.454453
-0.156148
0.465272
-0.151206
0.475951
-0.141731
0.486033
-0.126914
0.49527
-0.110853
0.503535
-0.094577
0.510767
-0.0783595
0.516872
-0.0621342
0.521814
-0.0460937
0.525536
-0.0302859
0.52802
-0.0147677
0.529203
0.000760948
0.529026
0.0167843
0.527377
0.0346104
0.523958
0.0575467
0.518254
0.0911775
0.510348
0.153455
0.499806
0.262648
-0.203658
0.249758
-0.55357
0.296293
-0.561001
0.349686
-0.629321
0.395583
-0.550688
0.440215
-0.536764
0.48373
-0.518219
0.522207
-0.462904
0.557443
-0.4235
0.589354
-0.382271
0.617521
-0.337417
0.642749
-0.300308
0.665378
-0.264101
0.685428
-0.229571
0.703374
-0.197657
0.719335
-0.165697
0.73328
-0.134327
0.745398
-0.102108
0.755607
-0.0695132
0.763936
-0.0355456
0.770272
-0.00145191
0.774646
0.0333608
0.777132
0.0660259
0.777656
0.0958089
0.77637
0.118968
0.773165
0.134726
0.767878
0.148492
0.76057
0.162724
0.751397
0.176498
0.740556
0.190693
0.72811
0.205494
0.714156
0.221066
0.698712
0.238007
0.681755
0.257322
0.663201
0.28076
0.642802
0.31139
0.620431
0.356759
0.595351
0.423892
0.569577
0.551277
0.538594
0.714857
-0.158178
-0.552031
-0.11196
-0.570219
-0.0530566
-0.714105
0.00457504
-0.712822
0.0629639
-0.730268
0.122608
-0.75062
0.178983
-0.720237
0.227755
-0.6403
0.269126
-0.560848
0.30421
-0.48999
0.332529
-0.413764
0.355327
-0.350142
0.374233
-0.303288
0.390002
-0.264473
0.403558
-0.235635
0.415705
-0.215057
0.426929
-0.199511
0.437608
-0.188372
0.448077
-0.180657
0.458531
-0.175033
0.469094
-0.17078
0.47982
-0.166874
0.490735
-0.16212
0.501579
-0.152576
0.511878
-0.137213
0.521347
-0.120322
0.529875
-0.103105
0.537379
-0.085863
0.543787
-0.0685422
0.549001
-0.0513078
0.552999
-0.0342841
0.555699
-0.0174677
0.557088
-0.000628205
0.557074
0.0167979
0.555489
0.0361952
0.552158
0.0608773
0.546505
0.096831
0.538832
0.161127
0.52899
0.272489
-0.206841
0.255473
-0.602201
0.304483
-0.610011
0.360944
-0.685782
0.409158
-0.598901
0.456313
-0.58392
0.502099
-0.564005
0.542687
-0.503491
0.57966
-0.460473
0.613158
-0.415769
0.642664
-0.366922
0.669174
-0.326818
0.692738
-0.287665
0.713732
-0.250566
0.732436
-0.216361
0.749026
-0.182288
0.763589
-0.148889
0.776216
-0.114735
0.786892
-0.0801895
0.795628
-0.044281
0.802405
-0.0082296
0.807219
0.0285475
0.810007
0.0632377
0.810905
0.094911
0.810011
0.119862
0.807197
0.137539
0.802352
0.153337
0.795415
0.169661
0.78652
0.185394
0.775834
0.201379
0.763472
0.217856
0.749457
0.23508
0.733824
0.25364
0.716566
0.27458
0.697594
0.299732
0.676715
0.332269
0.653775
0.379697
0.62813
0.449537
0.601765
0.577642
0.571405
0.745217
-0.158891
-0.599982
-0.110166
-0.618944
-0.048043
-0.776228
0.0126603
-0.773526
0.0741925
-0.791801
0.137029
-0.813457
0.196414
-0.779622
0.247668
-0.691553
0.291116
-0.604295
0.32786
-0.526735
0.35745
-0.443355
0.381165
-0.373856
0.400706
-0.322829
0.416902
-0.280669
0.430698
-0.249431
0.442962
-0.227321
0.454188
-0.210737
0.464824
-0.199009
0.47521
-0.191042
0.485604
-0.185427
0.496094
-0.18127
0.506827
-0.177607
0.5178
-0.173093
0.528786
-0.163562
0.539274
-0.147701
0.548947
-0.129995
0.557739
-0.111897
0.565508
-0.0936315
0.572169
-0.0752037
0.577686
-0.0568245
0.581934
-0.0385326
0.58488
-0.0204138
0.586447
-0.0021949
0.586586
0.0166586
0.585139
0.0376419
0.581871
0.0641458
0.576345
0.102357
0.568881
0.168591
0.55975
0.281621
-0.210312
0.261564
-0.653453
0.31325
-0.661697
0.372767
-0.745299
0.423705
-0.649839
0.473308
-0.633523
0.521626
-0.612323
0.564236
-0.546101
0.603165
-0.499402
0.638365
-0.450969
0.669358
-0.397915
0.697049
-0.354509
0.721769
-0.312385
0.743647
-0.272444
0.763148
-0.235861
0.780381
-0.199521
0.79558
-0.164088
0.808708
-0.127863
0.819854
-0.0913358
0.829068
-0.0534952
0.83622
-0.0153812
0.841366
0.0234013
0.844519
0.0600848
0.84575
0.0936798
0.845198
0.120414
0.842775