/*--------------------------------*- C++ -*----------------------------------*\
| =========                 |                                                 |
| \\      /  F ield         | OpenFOAM: The Open Source CFD Toolbox           |
|  \\    /   O peration     | Version:  2312                                  |
|   \\  /    A nd           | Website:  www.openfoam.com                      |
|    \\/     M anipulation  |                                                 |
\*---------------------------------------------------------------------------*/
FoamFile
{
    version     2.0;
    format      ascii;
    arch        "LSB;label=32;scalar=64";
    class       volSymmTensorField;
    location    "200";
    object      turbulenceProperties:devReff;
}
// * * * * * * * * * * * * * * * * * * * * * * * * * * * * * * * * * * * * * //

dimensions      [0 2 -2 0 0 0 0];

internalField   nonuniform List<symmTensor> 
10720
(
(0.00162889 0.00422297 -1.73525e-21 -0.00176441 -6.18466e-20 0.000135528)
(0.00237447 0.00484025 1.14479e-21 -0.00247167 6.75371e-20 9.72002e-05)
(0.00358764 0.00541636 1.5827e-20 -0.0037834 6.69434e-20 0.000195762)
(0.0052104 0.006165 7.50276e-20 -0.00545459 6.08069e-19 0.000244197)
(0.00737398 0.00681921 -3.02738e-19 -0.00764075 -1.21078e-18 0.000266773)
(0.0103331 0.00720593 -3.59219e-19 -0.0107219 -7.31884e-19 0.000388782)
(0.0142041 0.00731935 1.26546e-19 -0.0146872 1.21561e-20 0.000483098)
(0.0190651 0.00680896 6.88424e-20 -0.0196441 1.08852e-19 0.00057899)
(0.0250842 0.00531217 1.79532e-19 -0.0258264 -1.45019e-19 0.000742192)
(0.0323723 0.002584 -2.75954e-20 -0.0332677 -2.76862e-20 0.000895321)
(0.0411009 -0.00189589 3.16914e-18 -0.0421866 1.2777e-18 0.0010857)
(0.0516634 -0.00869792 -7.54814e-19 -0.0529751 -5.79723e-19 0.00131163)
(0.0645891 -0.0187342 1.52697e-18 -0.0661748 -2.29254e-18 0.00158565)
(0.0807845 -0.033584 7.44119e-19 -0.0827304 1.59834e-18 0.0019459)
(0.101757 -0.0558755 1.17022e-18 -0.104211 -2.07468e-18 0.00245431)
(0.129763 -0.0899433 4.71198e-19 -0.132922 7.30344e-18 0.00315961)
(0.168686 -0.144171 3.67307e-17 -0.172969 1.95162e-17 0.00428232)
(0.223011 -0.231382 -1.02302e-17 -0.228869 1.38206e-17 0.00585816)
(0.307723 -0.385505 -4.11872e-18 -0.316274 -6.66239e-17 0.00855024)
(0.42493 -0.64098 2.30113e-18 -0.437112 -4.18257e-19 0.0121829)
(0.654581 -1.19602 -6.64186e-17 -0.67378 -8.72322e-17 0.0191981)
(0.945522 -2.12371 1.60637e-16 -0.971987 4.69465e-16 0.0264651)
(1.71527 -5.00303 -2.46254e-16 -1.76666 -8.81779e-16 0.051385)
(2.4309 -10.3443 4.40165e-16 -2.51656 1.20188e-16 0.0856608)
(1.57218 -11.9423 -2.43957e-16 -1.61766 -1.17056e-17 0.0454854)
(0.555242 -11.5856 2.08707e-17 -0.546518 -1.26278e-15 -0.00872392)
(-0.139049 -11.3756 2.66242e-16 0.167277 -6.40928e-17 -0.0282276)
(-0.674312 -11.5267 1.94377e-16 0.698125 4.09309e-16 -0.0238121)
(-1.15814 -11.7185 1.16138e-15 1.17384 5.51605e-16 -0.0157047)
(-1.60325 -11.7113 1.07265e-15 1.61117 4.48279e-15 -0.00792206)
(-1.99553 -11.4723 -2.02682e-15 1.99375 -1.72944e-15 0.00177712)
(-2.3147 -11.0399 -2.20888e-15 2.30423 -3.00539e-15 0.010467)
(-2.53746 -10.4052 -9.24699e-16 2.52233 -3.97e-15 0.0151316)
(-2.65137 -9.58189 -3.00671e-15 2.63564 -5.54844e-15 0.0157363)
(-2.63774 -8.56117 1.07309e-15 2.62319 2.92227e-15 0.0145502)
(-2.48572 -7.37175 1.84095e-16 2.4744 2.18534e-15 0.0113212)
(-2.12665 -5.81195 -4.74012e-17 2.11313 3.87597e-18 0.0135155)
(-1.63452 -4.28776 -1.83686e-15 1.63223 -1.11132e-16 0.00229199)
(-0.497447 -0.982942 -3.70513e-16 0.498146 -1.74032e-15 -0.000699809)
(0.000965219 0.00368308 1.25788e-21 -0.00101673 -4.46256e-21 5.15103e-05)
(0.000550225 0.0031715 -6.81576e-21 -0.000639517 6.94639e-21 8.92922e-05)
(0.000182845 0.00259047 -3.70495e-20 -0.00022952 -2.58115e-20 4.66751e-05)
(-6.14204e-05 0.0020734 3.88484e-20 2.75404e-05 -5.50166e-20 3.38799e-05)
(-0.000172436 0.00158462 -4.80407e-20 0.000154308 -4.52759e-20 1.8128e-05)
(-0.00016548 0.00115826 -2.43261e-19 0.000166202 2.96028e-19 -7.22131e-07)
(-7.72937e-05 0.000829151 8.43479e-20 0.000101828 2.73391e-19 -2.45343e-05)
(6.03532e-05 0.00063331 -4.08908e-20 -2.28387e-05 -3.91245e-19 -3.75146e-05)
(0.000237384 0.000621271 1.99995e-19 -0.000211557 3.90701e-21 -2.5827e-05)
(0.000478803 0.000744584 -1.4732e-19 -0.00047571 -4.24509e-20 -3.093e-06)
(0.000822088 0.00103193 1.2699e-19 -0.000832695 3.06097e-19 1.06069e-05)
(0.00131941 0.001576 2.60363e-19 -0.00133747 -1.22048e-19 1.80526e-05)
(0.00204216 0.00254235 -2.60731e-19 -0.0020726 -7.36447e-20 3.04384e-05)
(0.00308007 0.00416428 1.8373e-20 -0.00313177 1.12555e-19 5.17019e-05)
(0.00450507 0.00668559 9.46133e-19 -0.00458049 1.97799e-19 7.54205e-05)
(0.00633952 0.0103966 9.06727e-19 -0.00644886 -1.91922e-19 0.000109335)
(0.00868996 0.0157188 4.09015e-19 -0.00883652 6.35261e-19 0.00014656)
(0.011806 0.0235466 2.93919e-19 -0.0120052 6.28691e-19 0.000199232)
(0.0162381 0.0356362 3.12724e-19 -0.0165079 -1.76656e-19 0.000269801)
(0.0228148 0.0552911 5.9006e-19 -0.0232074 2.59296e-20 0.000392632)
(0.033132 0.0891128 -8.87897e-19 -0.0337263 -5.38516e-18 0.000594229)
(0.049357 0.149362 -3.13116e-18 -0.0503419 -1.0135e-19 0.00098484)
(0.0761831 0.265381 2.97309e-18 -0.0779717 5.22518e-18 0.00178852)
(0.116986 0.490657 2.13528e-18 -0.120644 -5.58e-19 0.0036574)
(0.184527 0.986184 7.52621e-17 -0.192426 -1.51735e-17 0.0078983)
(0.279724 2.03027 -1.10057e-18 -0.2962 -1.15449e-17 0.016476)
(0.413107 4.56578 1.94761e-19 -0.451862 7.17827e-18 0.0387545)
(0.423341 9.41634 2.22967e-18 -0.504013 -6.85004e-20 0.0806725)
(0.00810987 13.3318 3.68113e-19 -0.112448 4.98521e-21 0.104338)
(-0.630137 14.9911 3.65669e-16 0.531745 4.78517e-18 0.098392)
(-1.27018 15.4263 -4.33584e-18 1.18791 -2.23531e-19 0.0822678)
(-1.85643 15.4448 -2.66877e-17 1.78907 3.70025e-17 0.0673589)
(-2.38134 15.2815 -2.24708e-15 2.32552 -1.87967e-16 0.0558159)
(-2.8377 14.9801 -4.03172e-15 2.79077 -2.56071e-16 0.0469224)
(-3.2235 14.5564 3.59221e-15 3.18315 3.91728e-16 0.0403471)
(-3.54283 14.0317 -2.69823e-17 3.50754 1.36846e-16 0.0352808)
(-3.78038 13.3061 1.22945e-18 3.74828 -5.28626e-16 0.0320982)
(-3.92379 12.4854 -1.94877e-16 3.89377 2.84509e-16 0.0300178)
(-3.64382 10.0765 -3.5146e-15 3.63727 1.29788e-16 0.00655272)
(0.000579009 -0.000458937 -4.13105e-21 -0.000519909 -1.26345e-20 -5.91001e-05)
(0.000492432 -0.00054581 7.4859e-21 -0.000425603 1.7019e-20 -6.68296e-05)
(0.000371531 -0.000621484 -3.06678e-22 -0.000291522 5.5327e-23 -8.00098e-05)
(0.000250823 -0.000650895 1.56386e-20 -0.000159213 2.31779e-21 -9.16103e-05)
(0.000133579 -0.000644058 1.0826e-20 -3.33015e-05 9.313e-20 -0.000100277)
(2.36395e-05 -0.000609662 7.10621e-20 8.53685e-05 1.24315e-19 -0.000109008)
(-5.9805e-05 -0.000550791 -3.54967e-20 0.000176404 5.71861e-21 -0.000116599)
(-0.000116221 -0.000478577 -2.99565e-20 0.000237759 -7.88277e-21 -0.000121538)
(-0.000148988 -0.000404469 -1.68871e-19 0.000273986 -1.86496e-19 -0.000124998)
(-0.000157826 -0.000335767 -5.63416e-20 0.000284793 -1.85981e-20 -0.000126967)
(-0.000150088 -0.00027804 -4.89026e-19 0.000276765 -4.77567e-19 -0.000126677)
(-0.000132739 -0.000239283 -5.85252e-21 0.000258704 8.01019e-20 -0.000125965)
(-0.000111021 -0.000224805 -2.59376e-19 0.000240357 7.69545e-21 -0.000129336)
(-8.66657e-05 -0.000243242 1.92196e-19 0.00023044 1.1421e-19 -0.000143774)
(-5.01328e-05 -0.000338111 -5.19444e-19 0.000240282 -1.51271e-19 -0.000190149)
(5.54992e-05 -0.000641921 1.889e-18 0.000259311 4.56918e-19 -0.00031481)
(0.000429701 -0.00150318 -3.27711e-18 0.000155834 -2.84499e-18 -0.000585535)
(0.00144097 -0.00346381 -5.66048e-18 -0.000449644 -2.28063e-18 -0.000991322)
(0.00400968 -0.00837947 -1.16379e-17 -0.00237212 4.91284e-18 -0.00163757)
(0.0100953 -0.0205915 2.31698e-18 -0.00752643 -1.9133e-20 -0.00256884)
(0.0276897 -0.0593168 2.11916e-17 -0.023385 3.0918e-17 -0.00430468)
(0.0708548 -0.168686 -4.14823e-17 -0.0646005 -1.23141e-16 -0.0062543)
(0.181685 -0.512208 -1.68988e-18 -0.173834 2.13884e-16 -0.00785119)
(0.472199 -1.68297 4.96741e-18 -0.468202 -8.32415e-17 -0.00399739)
(0.709204 -3.37886 -0 -0.729648 -0 0.0204437)
(0.754479 -5.16747 -2.40387e-17 -0.804877 5.67608e-16 0.050398)
(0.582684 -6.87223 -6.66412e-17 -0.651125 4.513e-17 0.0684414)
(0.206006 -8.11546 -1.06404e-16 -0.278672 -4.55793e-16 0.0726652)
(-0.275525 -8.42083 -9.66625e-16 0.21165 -2.54556e-15 0.0638744)
(-0.682627 -7.7624 3.84918e-16 0.642077 -8.07947e-15 0.0405495)
(-0.910673 -6.60642 -1.10658e-16 0.9016 5.53057e-15 0.00907279)
(-0.982263 -5.4148 -3.40061e-16 0.999499 7.24944e-15 -0.0172358)
(-0.971126 -4.4453 -2.20413e-15 1.00073 4.18615e-15 -0.0296087)
(-0.919439 -3.7079 6.43936e-15 0.949555 1.51618e-14 -0.0301154)
(-0.854064 -3.14781 -4.00208e-16 0.878661 -2.68829e-15 -0.0245972)
(-0.774198 -2.71212 6.2344e-15 0.79499 -3.67159e-15 -0.0207923)
(-0.724576 -2.4064 -2.21903e-16 0.738224 4.87697e-17 -0.0136474)
(-0.560634 -2.12535 3.20206e-15 0.595579 7.20267e-16 -0.0349452)
(-0.77261 -2.22796 5.79787e-15 0.686081 6.59611e-15 0.0865295)
(0.000644975 -0.000343454 4.77765e-21 -0.000595024 1.5557e-20 -4.99505e-05)
(0.000683471 -0.00022311 -3.01829e-21 -0.000636825 -6.58072e-20 -4.66456e-05)
(0.000690478 -7.50419e-05 -4.13865e-20 -0.000653752 -1.36102e-19 -3.67267e-05)
(0.000652781 8.77722e-05 7.78579e-21 -0.000626509 1.94064e-19 -2.62718e-05)
(0.000563374 0.000236119 9.04934e-20 -0.000549567 -8.52167e-20 -1.38063e-05)
(0.000427455 0.000349302 -2.58941e-20 -0.000424044 -1.38681e-19 -3.41131e-06)
(0.000269799 0.000405886 1.35917e-19 -0.000273328 -2.99279e-19 3.52886e-06)
(0.000130333 0.000406716 -2.34232e-19 -0.000139473 -3.08348e-20 9.13968e-06)
(2.19585e-05 0.000373793 -1.29012e-19 -3.23927e-05 2.91572e-19 1.04342e-05)
(-6.71433e-05 0.000315759 -3.96405e-20 6.11015e-05 -1.44313e-20 6.04181e-06)
(-0.000122156 0.000243032 -6.31612e-20 0.000123769 -1.47126e-19 -1.61291e-06)
(-0.000141882 0.000176239 1.3069e-20 0.000150345 -7.80678e-20 -8.46375e-06)
(-0.00013999 0.00012409 5.38273e-20 0.000152902 1.38212e-19 -1.29116e-05)
(-0.000127519 8.64171e-05 -4.75557e-20 0.00014288 -3.21035e-20 -1.53613e-05)
(-0.000110946 6.07688e-05 -2.76162e-20 0.000127486 -9.88744e-20 -1.65406e-05)
(-9.40762e-05 4.39567e-05 -9.92162e-20 0.000110906 -2.99123e-20 -1.68298e-05)
(-7.85703e-05 3.33968e-05 -1.75337e-20 9.50456e-05 -1.98193e-22 -1.64753e-05)
(-6.5288e-05 2.69207e-05 -1.12717e-21 8.09906e-05 -1.01674e-20 -1.57026e-05)
(-5.42437e-05 2.2808e-05 -1.13368e-20 6.89439e-05 8.12444e-21 -1.47002e-05)
(-4.52089e-05 2.0056e-05 1.96816e-20 5.88766e-05 -6.71401e-21 -1.36676e-05)
(-3.79344e-05 1.80341e-05 -1.19846e-19 5.06969e-05 8.81483e-20 -1.27625e-05)
(-3.2623e-05 1.65772e-05 -2.54325e-20 4.48965e-05 5.25975e-21 -1.22736e-05)
(-2.91533e-05 1.56335e-05 -8.63591e-22 4.16782e-05 -2.37149e-20 -1.2525e-05)
(-2.68418e-05 1.56184e-05 1.13447e-19 4.05129e-05 6.13089e-21 -1.36711e-05)
(-2.45869e-05 1.73973e-05 -9.86065e-20 3.9699e-05 8.44323e-21 -1.51121e-05)
(-0.000238336 0.000217833 -9.75472e-19 0.000410191 2.12519e-19 -0.000171855)
(-0.00121509 0.0013853 -8.19691e-20 0.00220141 -1.22854e-19 -0.000986321)
(-0.00875742 0.0121831 -6.50826e-21 0.0164271 -3.40518e-19 -0.00766963)
(-0.0263697 0.0464209 -5.01315e-20 0.0502556 -6.81201e-22 -0.0238859)
(-0.0450802 0.103507 2.72601e-18 0.0852803 2.42138e-18 -0.0402001)
(-0.0580937 0.171699 1.9333e-19 0.105519 -1.19451e-18 -0.0474251)
(-0.0661052 0.236388 4.86235e-18 0.111421 -1.79862e-17 -0.0453158)
(-0.0731725 0.29058 2.46192e-15 0.112218 1.76847e-16 -0.0390453)
(-0.0821772 0.336155 2.30795e-15 0.114964 1.21694e-16 -0.0327873)
(-0.0943792 0.376603 -2.14309e-15 0.122381 -2.51975e-16 -0.0280022)
(-0.108708 0.416836 2.07833e-15 0.133894 2.72668e-16 -0.0251866)
(-0.129091 0.457558 -3.68458e-15 0.151904 -5.43852e-16 -0.0228127)
(-0.147667 0.554196 -3.42934e-15 0.174574 -7.49531e-16 -0.0269068)
(-0.208244 0.779576 -3.42668e-15 0.197795 -1.04019e-16 0.0104488)
(0.000333935 -0.000311529 -1.56245e-21 -0.000360127 -5.58829e-21 2.61923e-05)
(0.000258857 -0.000371008 -3.3652e-20 -0.000290516 -7.91285e-20 3.16586e-05)
(0.000161616 -0.000412373 2.47394e-20 -0.00019851 5.88813e-20 3.68945e-05)
(5.30937e-05 -0.000425341 3.4102e-20 -9.77057e-05 6.44322e-20 4.4612e-05)
(-5.31966e-05 -0.000412268 6.16618e-20 2.58752e-06 8.90119e-20 5.06091e-05)
(-0.000153402 -0.000371901 -1.89111e-19 9.6805e-05 -3.30478e-19 5.65967e-05)
(-0.000237474 -0.000308206 1.32387e-19 0.000174253 2.65262e-19 6.32208e-05)
(-0.000298504 -0.000230726 1.76125e-19 0.000229931 1.57168e-19 6.85729e-05)
(-0.000336302 -0.000145649 -1.01321e-20 0.000263134 2.12305e-20 7.31677e-05)
(-0.000351557 -6.1552e-05 1.06771e-19 0.000274335 1.90081e-19 7.72218e-05)
(-0.000347351 1.5954e-05 -2.30962e-19 0.0002675 -1.09434e-20 7.98515e-05)
(-0.000330047 8.31693e-05 3.13643e-19 0.000249217 3.47799e-19 8.08306e-05)
(-0.000305965 0.00013845 1.47462e-19 0.00022628 6.05896e-20 7.96853e-05)
(-0.000279868 0.000183863 7.37286e-20 0.00020274 -7.04046e-20 7.71277e-05)
(-0.00025257 0.000217849 2.10941e-19 0.000180078 2.08531e-19 7.24924e-05)
(-0.000222228 0.000236653 -5.19461e-19 0.000157252 -5.3009e-19 6.49756e-05)
(-0.000182539 0.000232184 1.19039e-19 0.000129318 1.74178e-19 5.32214e-05)
(-0.000150993 0.000222734 9.2732e-19 0.000108418 2.71722e-19 4.25749e-05)
(-9.73949e-05 0.000162403 2.0518e-19 7.1841e-05 1.51214e-19 2.55538e-05)
(-0.000928207 0.00169643 -6.9033e-19 0.000713159 -4.7653e-20 0.000215048)
(-0.000267549 0.000522914 2.6939e-19 0.000216334 -5.95536e-19 5.12144e-05)
(-0.000582556 0.00118955 1.58423e-19 0.000502649 1.36465e-18 7.99071e-05)
(-0.000126435 0.000203258 2.21822e-18 0.00012956 -4.61563e-19 -3.12479e-06)
(0.00146263 -0.0053893 -7.44858e-18 -0.00116084 -3.11373e-18 -0.000301794)
(0.0111731 -0.0488721 2.40465e-19 -0.00942667 5.98292e-19 -0.00174642)
(0.028568 -0.170006 -5.34119e-17 -0.0246874 1.53752e-17 -0.00388061)
(0.0476391 -0.436091 1.88031e-17 -0.0418964 7.64936e-18 -0.0057427)
(0.0576312 -0.996879 -2.38257e-17 -0.0505953 -1.94265e-18 -0.00703589)
(0.0239303 -2.0008 -5.98399e-16 -0.0170848 6.08505e-16 -0.00684556)
(-0.108434 -3.36009 -1.04182e-15 0.112096 3.24733e-17 -0.00366227)
(-0.359515 -4.63009 3.76799e-15 0.355399 -1.10862e-15 0.00411609)
(-0.655302 -5.29121 3.11727e-15 0.642016 1.68943e-15 0.0132859)
(-0.871379 -5.20352 -1.4375e-16 0.855839 4.19884e-15 0.0155404)
(-0.955467 -4.67179 6.54066e-15 0.946412 -4.93801e-15 0.00905544)
(-0.942554 -4.03865 5.09142e-15 0.9405 -2.89372e-15 0.00205417)
(-0.861237 -3.45084 -9.48023e-15 0.863944 -3.48237e-15 -0.00270702)
(-0.783828 -2.99164 -2.82033e-17 0.782993 -1.6826e-15 0.000834814)
(-0.525467 -2.51158 6.23578e-15 0.540842 -1.59289e-15 -0.0153753)
(-0.824745 -2.76472 -1.31826e-14 0.80697 4.23629e-15 0.0177749)
(0.000395293 -0.000235556 -7.39613e-21 -0.000419189 -1.78185e-20 2.38955e-05)
(0.000435363 -0.000153179 -6.1289e-21 -0.000454554 -6.48842e-21 1.91908e-05)
(0.000459553 -5.22313e-05 5.57381e-20 -0.000474326 9.67102e-20 1.47729e-05)
(0.000454057 5.52478e-05 -3.37161e-20 -0.000463383 -1.71544e-21 9.32555e-06)
(0.00041478 0.000161105 7.96597e-21 -0.00042016 4.15082e-20 5.38015e-06)
(0.000341009 0.000248371 -1.31363e-20 -0.000342931 1.33277e-19 1.92218e-06)
(0.000243065 0.000302955 -2.94109e-20 -0.000242741 1.24879e-19 -3.23881e-07)
(0.000140135 0.000319645 3.52713e-19 -0.000140889 2.52547e-19 7.53632e-07)
(4.73571e-05 0.000308912 5.31771e-20 -4.87916e-05 -6.86827e-20 1.43451e-06)
(-2.88968e-05 0.000273362 1.8636e-19 2.78412e-05 2.42638e-20 1.05557e-06)
(-7.88234e-05 0.000220799 -1.45986e-19 7.74672e-05 -9.69512e-20 1.35624e-06)
(-0.000102736 0.000166444 -1.0485e-19 0.000100188 1.60739e-19 2.54805e-06)
(-0.000108692 0.000118914 1.13747e-19 0.000104574 -5.74291e-20 4.11748e-06)
(-0.000104003 8.06188e-05 9.24149e-20 9.81868e-05 -3.40146e-22 5.81607e-06)
(-9.39269e-05 5.17373e-05 -6.71518e-20 8.6694e-05 6.43506e-20 7.2329e-06)
(-8.18997e-05 3.07926e-05 -4.80793e-20 7.34795e-05 1.1561e-19 8.42021e-06)
(-7.00862e-05 1.62159e-05 1.16773e-19 6.08121e-05 -7.12355e-20 9.27413e-06)
(-5.96035e-05 6.16338e-06 1.08047e-19 4.97107e-05 -1.97496e-20 9.89283e-06)
(-5.09355e-05 -8.78315e-07 4.22113e-20 4.06976e-05 -3.76888e-21 1.02379e-05)
(-4.38218e-05 -6.17599e-06 -1.42375e-20 3.33344e-05 5.2443e-20 1.04874e-05)
(-3.79742e-05 -1.04749e-05 1.99865e-19 2.73499e-05 2.43259e-20 1.06243e-05)
(-3.2837e-05 -1.45038e-05 7.86988e-21 2.20271e-05 -3.65084e-20 1.08099e-05)
(-2.76765e-05 -1.87099e-05 -6.29905e-22 1.65731e-05 -2.34364e-21 1.11034e-05)
(-2.10124e-05 -2.26431e-05 -4.31877e-21 9.12763e-06 -2.51891e-20 1.18848e-05)
(-1.28847e-05 -2.48174e-05 -3.50754e-21 -3.3669e-07 1.84924e-20 1.32214e-05)
(-4.74145e-06 -2.40844e-05 3.09964e-19 -9.53173e-06 -1.59714e-20 1.42732e-05)
(2.23017e-06 -2.25298e-05 7.59261e-22 -1.81032e-05 -1.96963e-23 1.58731e-05)
(5.50227e-06 -1.3791e-05 -2.36524e-20 -1.76778e-05 1.30792e-21 1.21756e-05)
(5.76691e-05 -7.4758e-05 -1.18323e-21 -0.000147126 -1.75214e-22 8.94569e-05)
(0.000486451 -0.000274962 -2.58141e-18 -0.00112426 -9.62094e-20 0.000637814)
(0.00146034 0.000444754 1.78076e-17 -0.00324166 8.01522e-19 0.00178132)
(0.00232107 0.00476097 -2.52959e-19 -0.00523243 -1.33107e-20 0.00291136)
(0.00185243 0.0156115 -2.74686e-16 -0.00506789 -1.25636e-17 0.00321546)
(-0.000715096 0.0345774 -3.07724e-19 -0.00187279 9.63174e-18 0.00258789)
(-0.00558075 0.0612748 -1.16702e-18 0.00404348 7.91632e-18 0.00153727)
(-0.0113991 0.0935051 3.55253e-17 0.0109061 -1.03051e-16 0.000493015)
(-0.0191528 0.128217 -1.73505e-16 0.0191129 7.13183e-16 3.99027e-05)
(-0.00960883 0.154719 2.19183e-15 0.0104441 8.17454e-16 -0.000835262)
(-0.0375075 0.262495 4.49455e-15 0.0294571 1.7644e-15 0.00805041)
(0.000306068 -0.000257171 -6.67926e-21 -0.000296757 -1.24322e-20 -9.31075e-06)
(0.000259236 -0.00030504 -1.45161e-20 -0.000248947 -2.3278e-20 -1.02896e-05)
(0.000196023 -0.000346398 2.77802e-20 -0.000182861 4.21413e-20 -1.31623e-05)
(0.000125289 -0.000373259 3.8956e-20 -0.000109529 3.80251e-20 -1.57596e-05)
(5.2168e-05 -0.000381782 4.41319e-21 -3.34187e-05 -1.89845e-21 -1.87494e-05)
(-2.07988e-05 -0.000372216 -1.48906e-20 4.30319e-05 3.6699e-20 -2.22331e-05)
(-8.61188e-05 -0.000346493 2.84505e-19 0.000111882 2.84989e-19 -2.5763e-05)
(-0.000138961 -0.00030763 -2.66349e-19 0.000168255 -3.53356e-19 -2.92947e-05)
(-0.000177849 -0.000260236 7.42761e-20 0.000210946 1.92045e-20 -3.30967e-05)
(-0.000201476 -0.000209697 3.51243e-19 0.000237992 2.60138e-19 -3.6516e-05)
(-0.00021111 -0.000159915 2.7588e-19 0.000250848 2.80046e-19 -3.97374e-05)
(-0.000208922 -0.000114056 2.98511e-19 0.000251295 8.57938e-20 -4.23731e-05)
(-0.000197459 -7.42296e-05 -3.31859e-19 0.000241583 -2.51576e-19 -4.41247e-05)
(-0.00017969 -4.12737e-05 -2.0736e-19 0.000224421 -2.07899e-19 -4.47319e-05)
(-0.000157663 -1.51534e-05 2.2669e-20 0.000202096 -6.93889e-20 -4.44331e-05)
(-0.000133103 7.25032e-06 -5.02504e-19 0.00017529 3.55645e-20 -4.21871e-05)
(-0.000107813 2.63241e-05 -1.37832e-19 0.000146113 -1.74705e-19 -3.82999e-05)
(-8.42909e-05 4.22937e-05 -7.69281e-19 0.000117323 -5.98577e-19 -3.30325e-05)
(-6.08248e-05 5.31708e-05 7.36497e-20 8.56632e-05 -9.90706e-20 -2.48383e-05)
(-4.29926e-05 5.84e-05 2.72855e-20 5.93515e-05 -6.24652e-20 -1.63589e-05)
(-3.70817e-05 6.95446e-05 -2.55865e-19 4.81839e-05 -2.76171e-21 -1.11022e-05)
(-4.8666e-05 0.000114927 5.26582e-20 5.90609e-05 1.15967e-20 -1.03948e-05)
(-4.01418e-05 0.000122946 -2.36303e-19 4.69655e-05 -4.8065e-20 -6.82369e-06)
(-0.00033933 0.00158416 -9.48812e-19 0.000406868 1.02423e-18 -6.75384e-05)
(-0.000581976 0.00647791 1.06479e-18 0.000850625 7.20009e-20 -0.00026865)
(0.000463494 0.0126368 9.8485e-18 8.86347e-05 5.25345e-18 -0.000552129)
(0.00311841 0.018017 -1.78946e-18 -0.00222935 7.43826e-19 -0.000889063)
(0.00014756 0.000286203 9.04272e-20 -0.000123588 5.73326e-21 -2.39725e-05)
(0.00329322 -0.00538305 2.77468e-17 -0.00290718 1.61227e-18 -0.000386038)
(0.00910867 -0.0812022 -8.61398e-18 -0.00803295 1.03986e-16 -0.00107572)
(0.00227109 -0.395308 -4.80884e-16 -0.00028291 -4.72614e-16 -0.00198818)
(-0.0633639 -1.13166 1.83437e-15 0.0659005 -1.72879e-15 -0.00253653)
(-0.23363 -2.19429 2.06382e-15 0.234698 -2.01061e-16 -0.00106785)
(-0.474207 -3.12082 -3.99842e-16 0.471385 -6.98616e-15 0.00282187)
(-0.677538 -3.54735 -5.66498e-15 0.671858 -1.71343e-15 0.00568012)
(-0.763503 -3.52092 6.84769e-16 0.760738 3.58841e-15 0.0027653)
(-0.778169 -3.31874 -9.78094e-15 0.773531 1.45439e-15 0.00463767)
(-0.563536 -2.94437 -6.90775e-15 0.573364 8.59053e-16 -0.00982872)
(-0.794039 -3.1356 8.09162e-15 0.766037 -4.96485e-15 0.028002)
(0.000341858 -0.000197469 -3.60074e-21 -0.000335614 -3.61139e-21 -6.24357e-06)
(0.000364213 -0.000134355 1.28313e-20 -0.000358804 5.89644e-20 -5.40918e-06)
(0.00037268 -5.63821e-05 3.82049e-20 -0.000370055 8.45013e-20 -2.62535e-06)
(0.000363187 2.58733e-05 4.1437e-20 -0.000361919 -2.02751e-20 -1.26799e-06)
(0.00033158 0.000106085 -8.22577e-20 -0.000331706 -7.02339e-20 1.2618e-07)
(0.000277654 0.000174732 -9.26747e-21 -0.000277924 -1.00702e-19 2.70449e-07)
(0.000207994 0.000222952 -1.26655e-19 -0.000207746 -1.2885e-19 -2.48556e-07)
(0.000133315 0.000246235 -1.98119e-19 -0.000133365 -7.21254e-21 4.95794e-08)
(6.14013e-05 0.000246518 -5.63883e-20 -6.22038e-05 -3.1481e-20 8.02547e-07)
(-1.00617e-06 0.00022604 6.18701e-20 -1.27927e-07 -4.3225e-20 1.1341e-06)
(-4.63532e-05 0.000191642 6.08481e-20 4.53757e-05 1.39627e-19 9.77553e-07)
(-7.38482e-05 0.000153131 1.15331e-19 7.3357e-05 -4.47695e-20 4.91154e-07)
(-8.70405e-05 0.000116989 -9.84998e-20 8.73184e-05 -1.12056e-19 -2.77882e-07)
(-9.03043e-05 8.61001e-05 -1.83019e-20 9.1451e-05 4.171e-20 -1.14673e-06)
(-8.73275e-05 6.15204e-05 8.99645e-20 8.93774e-05 -1.96929e-20 -2.04989e-06)
(-8.10588e-05 4.28217e-05 1.9674e-19 8.39159e-05 -1.42048e-20 -2.85712e-06)
(-7.35529e-05 2.91617e-05 -1.2375e-19 7.7141e-05 -3.4955e-20 -3.58811e-06)
(-6.60769e-05 1.93535e-05 -3.73179e-20 7.02669e-05 -5.44405e-20 -4.19002e-06)
(-5.93232e-05 1.22317e-05 -1.74012e-20 6.40057e-05 9.65366e-21 -4.68244e-06)
(-5.34217e-05 6.74477e-06 1.83066e-19 5.84393e-05 -7.20735e-20 -5.0176e-06)
(-4.83206e-05 2.21616e-06 3.29087e-20 5.35996e-05 -4.80825e-20 -5.27894e-06)
(-4.37426e-05 -1.93027e-06 -1.7815e-19 4.92142e-05 5.2108e-20 -5.47163e-06)
(-3.92197e-05 -6.03594e-06 -7.40509e-21 4.48647e-05 2.61223e-20 -5.64504e-06)
(-3.40382e-05 -9.8548e-06 -2.84727e-21 3.97961e-05 -1.74389e-20 -5.75789e-06)
(-2.84071e-05 -1.22531e-05 2.64289e-21 3.44421e-05 -2.1654e-22 -6.03502e-06)
(-2.34524e-05 -1.2998e-05 -1.36356e-19 3.00923e-05 -2.75736e-20 -6.6399e-06)
(-1.95438e-05 -1.28588e-05 -2.38028e-21 2.6868e-05 4.22925e-22 -7.3242e-06)
(-1.65259e-05 -1.23474e-05 2.9282e-20 2.44995e-05 7.47291e-22 -7.97355e-06)
(-1.36732e-05 -1.14131e-05 -1.04906e-21 2.18808e-05 -2.50148e-23 -8.20751e-06)
(-1.09045e-05 -1.02195e-05 6.74038e-22 1.87845e-05 8.91907e-22 -7.88001e-06)
(-7.36839e-06 -8.07029e-06 -8.04172e-20 1.36655e-05 -2.83107e-21 -6.29712e-06)
(-4.1751e-06 -5.69851e-06 -2.17014e-21 8.55228e-06 -1.34857e-22 -4.37718e-06)
(-3.0488e-05 -5.74585e-05 4.07044e-21 7.79596e-05 -7.11679e-20 -4.74716e-05)
(1.05017e-07 -4.35904e-05 1.73673e-17 0.000110179 1.5726e-18 -0.000110284)
(0.000238813 0.00061378 1.10136e-18 -0.000138226 1.23144e-19 -0.000100587)
(0.000889033 0.00337808 -1.88739e-16 -0.00094843 -3.56804e-17 5.93965e-05)
(0.00158132 0.0113179 1.2567e-15 -0.00206207 1.84474e-16 0.000480751)
(0.00677455 0.0281624 4.84531e-17 -0.00726805 -1.7783e-16 0.000493505)
(-0.0028256 0.105162 2.7465e-16 -0.00198596 -1.52682e-15 0.00481156)
(0.000222669 -0.000195355 -7.9808e-21 -0.000225647 -1.18189e-20 2.97767e-06)
(0.000184315 -0.000230864 -1.45941e-20 -0.000188629 -1.97144e-20 4.31396e-06)
(0.00013475 -0.000260528 4.9615e-20 -0.000139535 6.35299e-20 4.78516e-06)
(7.84336e-05 -0.000278539 -2.11548e-19 -8.45388e-05 -2.88846e-19 6.10518e-06)
(1.94798e-05 -0.000282775 5.24937e-20 -2.69638e-05 8.20245e-20 7.48399e-06)
(-3.9807e-05 -0.000272653 1.14441e-19 3.10475e-05 1.18898e-19 8.75955e-06)
(-9.41436e-05 -0.000248885 -9.76865e-20 8.36561e-05 -1.59818e-19 1.04875e-05)
(-0.000139632 -0.000213653 -6.5603e-20 0.0001273 1.12952e-20 1.23321e-05)
(-0.000174033 -0.000169941 -3.93067e-19 0.000159863 -3.71504e-19 1.41699e-05)
(-0.000196007 -0.000121948 -5.51019e-20 0.000179747 -1.48358e-19 1.62603e-05)
(-0.000205664 -7.31101e-05 1.07831e-20 0.000187318 -3.48178e-20 1.83464e-05)
(-0.000204163 -2.65888e-05 -1.96754e-19 0.000183733 -2.49741e-19 2.043e-05)
(-0.000193504 1.50684e-05 9.42795e-20 0.000171087 1.13016e-19 2.24166e-05)
(-0.000176068 5.03347e-05 -3.86639e-19 0.000151969 -2.00845e-19 2.40993e-05)
(-0.000154155 7.90013e-05 8.42184e-20 0.000128673 4.691e-20 2.54818e-05)
(-0.000130206 0.00010008 3.67911e-19 0.000104303 3.07784e-19 2.59028e-05)
(-0.000105837 0.000112827 -5.04002e-19 8.10167e-05 -1.43162e-19 2.48198e-05)
(-8.17628e-05 0.000118187 -9.25946e-20 5.89725e-05 4.1602e-19 2.27903e-05)
(-5.93362e-05 0.000117827 -3.12262e-20 3.91983e-05 -5.29064e-20 2.01379e-05)
(-3.8824e-05 0.000110621 -3.68829e-19 2.21687e-05 -5.94674e-20 1.66553e-05)
(-1.98695e-05 8.66837e-05 3.18826e-19 8.87592e-06 1.95721e-19 1.09936e-05)
(-9.6091e-06 6.61333e-05 7.93926e-21 3.16462e-06 -1.15377e-20 6.44448e-06)
(-5.92679e-06 6.86228e-05 1.78148e-19 1.20761e-06 4.97033e-20 4.71919e-06)
(-1.64211e-06 7.79458e-05 1.3121e-19 -2.17646e-06 4.38584e-20 3.81858e-06)
(4.49783e-06 8.47136e-05 -1.27661e-20 -7.55469e-06 -1.20623e-21 3.05686e-06)
(9.98422e-06 8.68615e-05 1.38341e-21 -1.21667e-05 -5.07436e-21 2.18251e-06)
(1.31182e-05 8.6975e-05 1.40863e-20 -1.44346e-05 -3.90878e-21 1.31643e-06)
(1.70769e-05 0.0001007 -7.69638e-21 -1.7853e-05 -1.15756e-20 7.76073e-07)
(0.00102278 0.00536178 -5.7757e-18 -0.00103627 -2.96812e-19 1.34859e-05)
(0.000232749 0.00101954 1.18349e-19 -0.000231303 6.71256e-21 -1.44613e-06)
(0.00152809 0.00496966 -1.45285e-18 -0.00150506 5.65422e-19 -2.3036e-05)
(0.00878521 0.0129361 -1.76567e-16 -0.00860962 -1.25798e-16 -0.000175591)
(0.018647 -0.0652714 -7.08262e-17 -0.0179715 -2.17884e-16 -0.000675497)
(-0.0145712 -0.474527 -4.9138e-15 0.0162736 4.83933e-16 -0.00170239)
(-0.15299 -1.30492 7.18582e-16 0.154799 2.36158e-15 -0.00180926)
(-0.362739 -2.20446 -8.16403e-19 0.363659 1.25448e-19 -0.000920321)
(-0.551201 -2.80243 -2.9335e-16 0.547533 4.44747e-15 0.00366741)
(-0.507243 -2.96923 1.42822e-16 0.517348 1.92836e-16 -0.0101045)
(-0.749923 -3.29661 -1.30613e-14 0.713223 2.72051e-15 0.0366997)
(0.000253006 -0.000152135 1.41167e-20 -0.000256127 8.95278e-21 3.12183e-06)
(0.000273955 -0.000105835 -3.97814e-20 -0.000275701 -6.38701e-20 1.74648e-06)
(0.000285365 -4.89886e-05 -2.21715e-20 -0.000286968 3.74894e-20 1.60307e-06)
(0.000282981 1.23586e-05 1.06294e-19 -0.000283797 7.71625e-20 8.16845e-07)
(0.000263878 7.3557e-05 -3.94093e-20 -0.000264446 -2.03875e-19 5.67729e-07)
(0.000227386 0.000127821 -7.0866e-20 -0.000227376 4.90719e-20 -9.121e-09)
(0.000177644 0.000168705 1.78877e-19 -0.000177318 1.39137e-19 -3.25904e-07)
(0.00012204 0.000192295 -5.96725e-20 -0.000121928 -1.61901e-19 -1.12422e-07)
(6.61771e-05 0.000198651 -1.43034e-19 -6.63532e-05 -6.437e-20 1.76082e-07)
(1.55271e-05 0.000188655 -1.0645e-19 -1.58609e-05 4.16536e-20 3.33803e-07)
(-2.39698e-05 0.000166715 1.1798e-19 2.36681e-05 4.22687e-21 3.01728e-07)
(-5.06878e-05 0.000139063 -6.77479e-20 5.04079e-05 -6.82644e-20 2.79873e-07)
(-6.59848e-05 0.000110666 -8.61982e-20 6.56501e-05 6.86036e-20 3.34782e-07)
(-7.24075e-05 8.44984e-05 8.34383e-20 7.19322e-05 3.56799e-20 4.75253e-07)
(-7.25616e-05 6.21786e-05 -1.22643e-19 7.18767e-05 2.05887e-20 6.84925e-07)
(-6.88771e-05 4.4115e-05 -3.25409e-20 6.79089e-05 -8.99251e-20 9.68176e-07)
(-6.32015e-05 3.00855e-05 3.6307e-20 6.19219e-05 4.64744e-20 1.27958e-06)
(-5.68754e-05 1.942e-05 -1.33788e-19 5.52767e-05 6.392e-21 1.59868e-06)
(-5.07137e-05 1.13352e-05 5.31064e-20 4.88184e-05 -1.00239e-21 1.89532e-06)
(-4.50568e-05 5.03254e-06 -2.02503e-19 4.28856e-05 1.4001e-20 2.17123e-06)
(-3.99698e-05 -1.09944e-07 -2.77153e-20 3.75726e-05 7.56162e-21 2.39722e-06)
(-3.52696e-05 -4.59763e-06 1.62223e-19 3.26817e-05 1.47393e-20 2.58793e-06)
(-3.05824e-05 -8.71859e-06 1.55353e-19 2.7844e-05 -3.54486e-20 2.7384e-06)
(-2.53098e-05 -1.23158e-05 -1.29576e-19 2.23713e-05 9.62277e-21 2.93842e-06)
(-1.94624e-05 -1.45988e-05 -1.79822e-21 1.62918e-05 1.07031e-21 3.17058e-06)
(-1.38763e-05 -1.53138e-05 -1.23997e-19 1.05179e-05 3.74865e-20 3.35844e-06)
(-8.99283e-06 -1.50553e-05 -2.41889e-21 5.32879e-06 2.65308e-23 3.66404e-06)
(-4.77836e-06 -1.42247e-05 -1.93029e-23 6.90074e-07 -1.01019e-21 4.08828e-06)
(-1.20124e-06 -1.31622e-05 -1.36869e-22 -3.37753e-06 2.78361e-23 4.57877e-06)
(1.66714e-06 -1.13105e-05 4.45492e-20 -6.39687e-06 3.95855e-22 4.72973e-06)
(4.4138e-06 -1.1865e-05 1.63018e-22 -1.01002e-05 -4.37941e-22 5.68643e-06)
(3.23303e-06 -5.8334e-06 3.18087e-23 -6.12863e-06 -3.38819e-24 2.8956e-06)
(1.20902e-05 -1.75485e-05 -6.23307e-19 -2.02017e-05 -4.69944e-20 8.1115e-06)
(8.77933e-05 -0.000110308 -4.07813e-18 -0.000130429 -3.47994e-19 4.26354e-05)
(2.51134e-05 -2.73908e-05 9.99399e-21 -3.32098e-05 1.01234e-21 8.09642e-06)
(0.000111386 -9.05792e-05 -8.37195e-18 -0.00012924 -1.3578e-19 1.78543e-05)
(0.000370138 -0.000131741 2.85186e-18 -0.000399744 -2.1254e-17 2.96057e-05)
(0.000953504 0.000219988 1.48868e-18 -0.000931255 2.93873e-19 -2.22488e-05)
(0.0038632 0.0199403 -5.1161e-16 -0.00525305 7.14103e-17 0.00138985)
(0.000184081 -0.000160367 1.57591e-20 -0.000182984 1.84173e-20 -1.0963e-06)
(0.000155919 -0.00018908 -1.18823e-20 -0.000154928 -1.33164e-20 -9.9091e-07)
(0.000118771 -0.000214325 3.84071e-23 -0.000117186 -9.96937e-22 -1.58421e-06)
(7.63267e-05 -0.000231814 -6.70435e-21 -7.44557e-05 6.25622e-21 -1.87093e-06)
(3.13569e-05 -0.000239461 1.51731e-19 -2.91128e-05 1.60054e-19 -2.2441e-06)
(-1.50616e-05 -0.000236883 -9.60233e-20 1.80084e-05 -1.23113e-19 -2.94678e-06)
(-5.89046e-05 -0.000224162 -7.22065e-21 6.24886e-05 3.16258e-20 -3.58396e-06)
(-9.72332e-05 -0.00020238 3.2806e-19 0.000101584 3.15565e-19 -4.35096e-06)
(-0.000128328 -0.000173391 -7.72637e-20 0.000133671 5.61586e-21 -5.34228e-06)