/*--------------------------------*- C++ -*----------------------------------*\
| =========                 |                                                 |
| \\      /  F ield         | OpenFOAM: The Open Source CFD Toolbox           |
|  \\    /   O peration     | Version:  2312                                  |
|   \\  /    A nd           | Website:  www.openfoam.com                      |
|    \\/     M anipulation  |                                                 |
\*---------------------------------------------------------------------------*/
FoamFile
{
    version     2.0;
    format      ascii;
    arch        "LSB;label=32;scalar=64";
    class       volScalarField;
    location    "200";
    object      turbulenceProperties:k;
}
// * * * * * * * * * * * * * * * * * * * * * * * * * * * * * * * * * * * * * //

dimensions      [0 2 -2 0 0 0 0];

internalField   nonuniform List<scalar> 
10720
(
0.0198428
0.0230992
0.0272411
0.0328417
0.0394289
0.0477651
0.058365
0.0714394
0.0880064
0.109145
0.136481
0.172669
0.221294
0.28828
0.383619
0.523375
0.737785
1.07078
1.64623
2.56829
4.55452
7.762
17.6541
35.4512
40.1574
38.6583
37.9185
38.4867
39.251
39.3998
38.8109
37.5926
35.6909
33.1296
29.8508
25.9229
20.6192
15.2922
3.6716
0.0169216
0.0145454
0.0118688
0.00956593
0.00738433
0.00541221
0.00381843
0.00286675
0.00302424
0.00409812
0.00607605
0.00909683
0.0134864
0.0197584
0.0285833
0.0410412
0.058975
0.0857946
0.127749
0.196114
0.313395
0.520782
0.916915
1.67847
3.34248
6.83117
15.2839
31.4237
44.4381
50.0055
51.5809
51.8363
51.5349
50.8032
49.6782
48.2215
46.0902
43.6059
35.7094
0.0031025
0.00308549
0.00305029
0.00296248
0.00282655
0.00267013
0.00248544
0.00227767
0.00207193
0.00186998
0.00167776
0.00154149
0.00151777
0.00165942
0.00213435
0.00330979
0.00617266
0.0127619
0.030251
0.0745625
0.214677
0.604554
1.80502
5.82178
11.5128
17.4188
22.9995
27.0638
28.0811
25.9679
22.2263
18.3482
15.1776
12.7462
10.8829
9.41106
8.38334
7.34344
7.82574
0.00307427
0.00303235
0.00294707
0.00282071
0.00264787
0.00241996
0.00215337
0.00189557
0.00165577
0.00141756
0.0011915
0.000995937
0.00083061
0.000690256
0.000571263
0.00047101
0.000385973
0.00031402
0.000250956
0.000193337
0.000136312
8.05404e-05
2.79081e-05
4.527e-06
1.27463e-05
0.00161692
0.00868974
0.0697029
0.233323
0.454427
0.676712
0.871485
1.0351
1.17897
1.31358
1.45235
1.59932
1.92825
2.68543
0.00208028
0.00206355
0.00201674
0.0019453
0.00187059
0.00178846
0.0017054
0.00163068
0.00156638
0.00151642
0.00147784
0.00145514
0.00144875
0.00146019
0.0014652
0.00142267
0.00124967
0.00107939
0.000129872
0.00655766
0.00247732
0.00439459
0.00081795
0.0182989
0.166145
0.573111
1.46055
3.32686
6.66853
11.2051
15.4784
17.7684
17.5815
15.8912
13.8225
11.8561
10.3079
8.5584
9.60858
0.00209667
0.00209421
0.00208869
0.00205161
0.00198555
0.00187427
0.00172125
0.00154723
0.00138554
0.00121844
0.0010389
0.000865239
0.000709816
0.00057593
0.00046541
0.000376229
0.000306773
0.000254125
0.000215859
0.000188397
0.000169499
0.000157263
0.000150577
0.000146964
0.000146873
0.00014598
0.000155235
9.19499e-05
0.000647715
0.0042173
0.0119166
0.0249119
0.0556344
0.115947
0.204957
0.313824
0.43203
0.516732
0.882852
0.0017552
0.00175883
0.00174998
0.00173536
0.00170528
0.00166053
0.00160474
0.00153511
0.00145554
0.00136754
0.00127303
0.00117341
0.00106959
0.000963335
0.000855717
0.000742819
0.000630247
0.000528332
0.000401626
0.000237275
7.05307e-07
0.000464262
0.000348312
0.00544782
0.0214359
0.0419404
0.0606844
0.00107986
0.0207234
0.271996
1.31733
3.77782
7.35519
10.5208
12.0359
12.0076
11.3603
9.9955
10.771
0.00173636
0.0017079
0.00166325
0.00160949
0.00154196
0.00145337
0.00135
0.00124018
0.00112554
0.00100102
0.000872582
0.000752269
0.000645942
0.000554252
0.000476769
0.000411814
0.000358375
0.000314846
0.000279909
0.000251469
0.000228358
0.000208944
0.000191539
0.000173226
0.000154402
0.000138763
0.000126942
0.000118494
0.000107991
9.52434e-05
6.985e-05
4.42785e-05
0.000345891
0.000593523
0.00219142
0.0116563
0.0382582
0.0967357
0.351278
0.00131727
0.00131492
0.00130461
0.00128626
0.00125791
0.00121947
0.001173
0.00111921
0.00105986
0.000998566
0.000937315
0.000878551
0.000824871
0.000777957
0.000738855
0.000706196
0.000672013
0.000630853
0.000586023
0.000522453
0.000356469
0.000127287
1.90708e-05
4.07094e-06
0
0
0
0.000317773
0.0179312
0.00349353
0.017135
0.0518857
0.225905
1.58237
4.3795
7.44683
9.51879
10.0434
11.2571
0.00131384
0.00130456
0.0012861
0.0012565
0.00121468
0.00115544
0.00108461
0.00100862
0.000927492
0.000838447
0.000745884
0.000655345
0.000570293
0.000492197
0.00042213
0.000360554
0.000307621
0.000263096
0.000226463
0.000196608
0.000172518
0.000152886
0.000136315
0.000120512
0.000104447
8.96069e-05
7.78347e-05
6.9712e-05
6.61895e-05
6.11181e-05
7.49933e-05
1.70734e-05
0.000116257
0.00054556
0.000153476
0.000497812
0.00135167
0.00320964
0.0684856
0.00107951
0.00108408
0.00108364
0.00107975
0.00106914
0.00105195
0.00102892
0.000999148
0.000963257
0.000922212
0.000876374
0.000826819
0.000774725
0.000721016
0.000666655
0.000610457
0.000549234
0.000486388
0.000427008
0.000375284
0.000333106
0.000278912
0.000200711
5.27952e-05
1.08596e-05
5.88498e-06
3.36551e-06
5.6335e-07
0
0.000223564
0.00369349
0.0294564
0.0380572
0.100612
0.13279
1.49151
4.57409
7.77848
10.6005
0.00106975
0.00105629
0.00103671
0.00101079
0.000977456
0.000933649
0.0008833
0.000829241
0.000770388
0.000705379
0.000637333
0.000569629
0.000504836
0.00044445
0.000389534
0.000340783
0.00029841
0.000262293
0.00023201
0.000206783
0.000185729
0.000167728
0.000151538
0.000135423
0.000118676
0.000102725
8.88095e-05
7.71635e-05
6.73957e-05
5.92735e-05
5.22965e-05
4.59164e-05
3.65296e-05
2.58585e-05
1.47298e-05
6.54915e-05
0.000232582
0.000734803
0.00786043
0.000873385
0.000877197
0.000877804
0.000875562
0.000868587
0.000856511
0.000839623
0.00081743
0.000790122
0.000758454
0.000722966
0.000684548
0.00064438
0.000603598
0.000563172
0.000524415
0.000489275
0.00045662
0.000423412
0.000388664
0.000355462
0.000327835
0.00029935
0.000250219
0.000177832
0.000106258
5.17534e-05
7.18937e-06
4.26315e-06
1.07977e-06
0
0
0.0053583
0.0276503
0.0143701
0.120754
0.627218
3.70906
8.27879
0.000866225
0.000856531
0.000842427
0.000822974
0.000797694
0.000765293
0.000728938
0.000689271
0.000645561
0.000597674
0.000547356
0.000496494
0.000446625
0.000398801
0.000353933
0.000312732
0.0002756
0.000242778
0.000214266
0.000189729
0.000168696
0.000150463
0.000134127
0.000118428
0.000102703
8.77986e-05
7.46964e-05
6.36714e-05
5.44965e-05
4.70517e-05
4.14909e-05
3.7893e-05
3.58474e-05
3.29899e-05
2.37133e-05
6.92893e-06
1.25025e-06
7.6521e-08
0.000253996
0.000723875
0.000728795
0.00073172
0.000732891
0.000730887
0.000725408
0.00071667
0.000704036
0.000687501
0.000667419
0.000643762
0.000616989
0.000587627
0.000556156
0.000523138
0.000489254
0.00045413
0.000416805
0.000378955
0.000343026
0.00031123
0.000285282
0.000266412
0.000251365
0.000230069
0.000195695
0.000154888
0.000112007
7.11503e-05
1.7525e-05
3.88902e-06
5.09371e-07
0
0
0.00191758
0.0425144
0.0805161
0.738081
4.73505
0.000716451
0.00070751
0.000695531
0.000679606
0.000659633
0.00063491
0.000607924
0.000578158
0.000545192
0.000509452
0.000471727
0.000433188
0.000394783
0.000357235
0.000321277
0.00028761
0.000256664
0.000228809
0.000204181
0.000182639
0.000163835
0.000147241
0.000132131
0.000117556
0.000103016
8.91353e-05
7.66808e-05
6.58669e-05
5.64673e-05
4.82727e-05
4.12264e-05
3.51896e-05
3.00183e-05
2.55671e-05
2.23473e-05
1.86557e-05
1.3542e-05
1.57645e-06
1.89023e-05
0.000603846
0.000608598
0.000612066
0.000614227
0.000614149
0.000611521
0.000606391
0.000598201
0.000586879
0.000572531
0.000555111
0.000534865
0.000512149
0.00048733
0.000460946
0.000433427
0.000405386
0.000377904
0.0003511
0.000324926
0.000299785
0.000276709
0.00025643
0.000238148
0.000219286
0.000197692
0.00017363
0.000150834
0.000129447
0.000100187
7.2255e-05
1.03957e-05
2.01507e-06
0
0
0
0.0220744
0.108499
1.76195
0.000597308
0.000589755
0.000580008
0.000567039
0.000551226
0.000532159
0.000511602
0.000488831
0.000463665
0.000436617
0.00040806
0.000378663
0.000348995
0.000319499
0.000290686
0.000263087
0.000237117
0.000213119
0.00019131
0.000171724
0.000154209
0.000138432
0.000123885
0.000109933
9.6223e-05
8.31555e-05
7.13617e-05
6.1082e-05
5.21838e-05
4.45148e-05
3.80411e-05
3.28063e-05
2.88147e-05
2.60319e-05
2.44248e-05
2.46578e-05
2.64473e-05
2.78619e-05
1.03337e-06
0.000509038
0.000513704
0.000517601
0.000520611
0.000522017
0.000521661
0.000519489
0.000515021
0.000508188
0.000498982
0.000487255
0.00047312
0.000456745
0.000438313
0.000418116
0.000396446
0.000373753
0.000350011
0.000325351
0.000300797
0.000277623
0.000256792
0.000238466
0.000221209
0.000202615
0.000181867
0.000160606
0.00014195
0.000127592
0.000115689
0.000106027
8.37307e-05
3.76325e-05
3.44235e-06
1.11331e-08
0
1.48571e-05
0.00452861
0.440591
0.000503052
0.000496476
0.000488291
0.000477509
0.000464761
0.000449887
0.000433863
0.000416133
0.000396729
0.000376009
0.000354162
0.000331589
0.000308583
0.000285379
0.000262356
0.0002399
0.000218331
0.000197997
0.000179116
0.000161801
0.000146016
0.000131559
0.000118084
0.000105166
9.25382e-05
8.04917e-05
6.9522e-05
5.98432e-05
5.13594e-05
4.39315e-05
3.75067e-05
3.20569e-05
2.75063e-05
2.39279e-05
2.13071e-05
2.07631e-05
2.04298e-05
3.4323e-05
1.38952e-05
0.000432174
0.000436547
0.000440471
0.000443778
0.000445904
0.000446784
0.000446269
0.000444027
0.000439914
0.000433901
0.000425804
0.000415653
0.000403505
0.000389442
0.00037367
0.000356424
0.00033796
0.000318694
0.000299054
0.000279416
0.00026039
0.000242464
0.000225843
0.000209715
0.000192313
0.000172752
0.000152401
0.000133935
0.000119088
0.00010798
9.95579e-05
9.53737e-05
8.44476e-05
5.90406e-05
2.28181e-07
1.7414e-10
0
0.00276122
0.118415
0.000426818
0.00042113
0.000414264
0.000405239
0.000394841
0.000383093
0.000370384
0.000356377
0.000341257
0.000325229
0.00030835
0.000290876
0.000272963
0.000254715
0.00023634
0.000218114
0.000200272
0.000183084
0.000166783
0.000151502
0.000137263
0.000123978
0.00011144
9.93772e-05
8.76358e-05
7.64348e-05
6.61569e-05
5.70082e-05
4.89484e-05
4.18858e-05
3.57923e-05
3.06767e-05
2.65363e-05
2.34287e-05
2.12981e-05
2.10268e-05
2.08951e-05
2.96621e-05
3.6729e-05
0.000369404
0.000373477
0.000377305
0.000380706
0.000383266
0.000384933
0.000385579
0.000384899
0.000382785
0.000379178
0.000373895
0.000366919
0.000358243
0.000347886
0.000335947
0.000322564
0.000307934
0.000292362
0.000275949
0.000259044
0.000242375
0.000226501
0.000211573
0.00019699
0.000181434
0.000164092
0.000145835
0.000128741
0.00011427
0.000102604
9.29028e-05
8.64033e-05
8.23497e-05
8.26792e-05
5.56004e-05
3.0578e-06
0
0.00068525
0.0413252
0.000364616
0.000359633
0.000353815
0.000346213
0.000337642
0.000328218
0.000318004
0.000306814
0.00029491
0.00028237
0.000269221
0.000255611
0.000241602
0.000227196
0.00021254
0.000197793
0.0001831
0.000168678
0.000154708
0.000141349
0.000128673
0.000116653
0.00010516
9.40402e-05
8.32391e-05
7.29204e-05
6.33862e-05
5.48209e-05
4.72172e-05
4.05102e-05
3.46721e-05
2.97079e-05
2.55934e-05
2.23855e-05
2.01032e-05
1.95026e-05
1.96883e-05
2.52802e-05
4.03191e-05
0.000317522
0.000321272
0.000324909
0.000328253
0.000330982
0.000333068
0.000334411
0.000334733
0.000333938
0.000331963
0.000328634
0.000323914
0.000317756
0.000310125
0.000301079
0.000290697
0.000279094
0.000266527
0.000253182
0.000239307
0.000225342
0.0002117
0.000198483
0.000185309
0.000171299
0.000155859
0.000139605
0.000124147
0.000110742
9.95144e-05
8.99044e-05
8.18479e-05
7.58478e-05
7.32669e-05
7.88366e-05
4.71492e-05
2.40765e-07
0.000199724
0.0133416
0.000313262
0.000308882
0.000303906
0.000297478
0.000290357
0.000282689
0.000274387
0.000265359
0.000255891
0.000245999
0.000235672
0.000224988
0.00021397
0.000202586
0.000190879
0.00017895
0.000166888
0.000154845
0.000142958
0.000131361
0.000120142
0.000109317
9.88332e-05
8.8628e-05
7.86999e-05
6.91952e-05
6.03498e-05
5.23328e-05
4.51644e-05
3.8808e-05
3.3251e-05
2.85129e-05
2.45936e-05
2.155e-05
1.94027e-05
1.87602e-05
1.90009e-05
2.32577e-05
3.70702e-05
0.000274285
0.000277708
0.000281116
0.000284326
0.000287088
0.000289405
0.000291163
0.000292135
0.000292248
0.000291424
0.000289524
0.00028648
0.000282249
0.000276779
0.000270071
0.00026216
0.000253106
0.000243102
0.000232279
0.000220777
0.000208925
0.00019714
0.00018551
0.000173768
0.000161286
0.000147619
0.000133213
0.000119329
0.00010707
9.66197e-05
8.76207e-05
7.97707e-05
7.32023e-05
6.79702e-05
6.653e-05
8.24697e-05
1.8077e-06
1.59754e-05
0.00311235
0.000270475
0.000266626
0.000262326
0.000256867
0.000250914
0.000244591
0.000237762
0.000230433
0.00022283
0.000214952
0.000206771
0.000198339
0.000189635
0.000180597
0.000171245
0.000161608
0.000151724
0.000141701
0.00013164
0.000121643
0.000111787
0.00010212
9.26369e-05
8.33438e-05
7.42773e-05
6.55631e-05
5.73999e-05
4.99361e-05
4.32104e-05
3.72093e-05
3.19299e-05
2.7396e-05
2.36072e-05
2.06196e-05
1.84642e-05
1.7714e-05
1.7847e-05
2.1526e-05
3.33311e-05
0.000237954
0.000241058
0.000244225
0.000247248
0.000249951
0.000252357
0.00025433
0.000255702
0.000256412
0.000256379
0.000255487
0.000253675
0.000250876
0.00024703
0.000242112
0.000236134
0.000229133
0.000221211
0.000212514
0.000203134
0.000193244
0.000183205
0.000173093
0.000162723
0.000151669
0.000139608
0.000126861
0.000114414
0.000103215
9.35275e-05
8.5127e-05
7.78257e-05
7.15002e-05
6.66749e-05
6.00721e-05
7.29171e-05
4.55532e-05
5.95011e-08
6.27163e-06
0.000234538
0.000231151
0.000227419
0.000222751
0.000217744
0.000212469
0.000206806
0.000200806
0.000194652
0.000188326
0.0001818
0.000175093
0.000168176
0.00016098
0.000153485
0.000145701
0.000137623
0.000129308
0.000120822
0.000112244
0.000103648
9.50853e-05
8.6575e-05
7.81478e-05
6.98872e-05
6.19219e-05
5.44102e-05
4.74819e-05
4.1189e-05
3.55372e-05
3.05345e-05
2.62115e-05
2.25777e-05
1.9692e-05
1.75846e-05
1.67742e-05
1.6809e-05
1.99113e-05
3.00509e-05
0.000207209
0.000210024
0.000212941
0.000215756
0.000218357
0.000220751
0.000222823
0.000224431
0.000225527
0.000226038
0.000225859
0.00022493
0.000223196
0.000220585
0.000217078
0.00021265
0.000207314
0.000201116
0.000194195
0.00018658
0.000178368
0.000169852
0.000161121
0.000152053
0.00014234
0.000131752
0.000120527
0.000109428
9.92495e-05
9.02981e-05
8.24526e-05
7.56283e-05
6.96639e-05
6.52122e-05
5.9806e-05
5.88408e-05
7.48874e-05
5.77845e-07
3.05102e-07
0.000204158
0.000201157
0.00019791
0.000193898
0.000189661
0.000185217
0.000180478
0.000175529
0.000170504
0.000165383
0.000160136
0.000154773
0.000149251
0.000143493
0.000137477
0.000131173
0.000124572
0.000117689
0.000110561
0.000103242
9.57849e-05
8.82435e-05
8.06502e-05
7.30664e-05
6.5586e-05
5.83351e-05
5.14477e-05
4.50409e-05
3.91744e-05
3.38686e-05
2.91405e-05
2.50255e-05
2.15374e-05
1.87355e-05
1.66527e-05
1.57656e-05
1.57102e-05
1.83047e-05
2.70814e-05
0.000181033
0.000183585
0.000186252
0.000188861
0.000191323
0.000193646
0.000195733
0.000197463
0.000198787
0.000199651
0.000199964
0.000199671
0.000198728
0.000197061
0.000194635
0.00019142
0.000187407
0.000182616
0.000177153
0.000171032
0.000164292
0.000157139
0.000149672
0.000141816
0.000133349
0.000124104
0.000114261
0.00010441
9.52118e-05
8.69832e-05
7.96861e-05
7.32781e-05
6.77038e-05
6.31729e-05
5.98562e-05
5.28701e-05
7.56661e-05
5.1748e-06
4.86104e-09
0.000178317
0.000175655
0.000172807
0.000169345
0.000165739
0.000161962
0.000157967
0.000153855
0.000149722
0.000145544
0.000141296
0.000136973
0.000132533
0.00012791
0.000123062
0.000117956
0.000112558
0.000106871
0.000100902
9.46829e-05
8.82517e-05
8.16474e-05
7.49114e-05
6.81182e-05
6.13748e-05
5.4795e-05
4.85023e-05
4.25989e-05
3.71477e-05
3.21812e-05
2.7724e-05
2.38152e-05
2.04749e-05
1.77632e-05
1.57143e-05
1.47613e-05
1.4624e-05
1.67681e-05
2.43316e-05
0.000158633
0.00016094
0.000163367
0.000165777
0.000168075
0.000170299
0.000172342
0.000174111
0.000175564
0.000176656
0.000177304
0.00017747
0.000177098
0.000176129
0.000174529
0.000172259
0.000169306
0.000165658
0.000161393
0.00015652
0.000151042
0.000145079
0.000138748
0.000132006
0.000124685
0.000116661
0.000108074
9.9377e-05
9.11142e-05
8.35956e-05
7.6849e-05
7.0849e-05
6.56449e-05
6.11254e-05
5.84506e-05
5.20966e-05
6.33207e-05
3.5447e-05
8.70039e-07
0.000156211
0.000153847
0.000151339
0.000148336
0.000145251
0.000142016
0.000138627
0.000135185
0.000131758
0.000128322
0.000124857
0.000121352
0.000117764
0.000114029
0.000110108
0.00010596
0.000101543
9.68449e-05
9.18571e-05
8.65885e-05
8.10659e-05
7.53212e-05
6.93875e-05
6.33319e-05
5.72678e-05
5.13207e-05
4.55933e-05
4.01741e-05
3.51267e-05
3.0492e-05
2.63011e-05
2.25951e-05
1.94e-05
1.67753e-05
1.47568e-05
1.37402e-05
1.35272e-05
1.5297e-05
2.17827e-05
0.000139371
0.000141448
0.00014366
0.000145866
0.000148005
0.000150102
0.000152073
0.000153824
0.000155334
0.000156557
0.000157423
0.000157895
0.000157935
0.000157483
0.000156513
0.000154979
0.000152859
0.000150139
0.000146851
0.000143014
0.000138606
0.000133682
0.000128367
0.000122636
0.000116357
0.000109436
0.000101982
9.4345e-05
8.69682e-05
8.01417e-05
7.39392e-05
6.83599e-05
6.34819e-05
5.91964e-05
5.62627e-05
5.22973e-05
5.31624e-05
5.48001e-05
1.09176e-05
0.000137206
0.000135102
0.000132885
0.000130274
0.000127614
0.00012483
0.000121937
0.000119037
0.000116173
0.000113329
0.000110482
0.000107618
0.0001047
0.000101666
9.84801e-05
9.51003e-05
9.14808e-05
8.75979e-05
8.3435e-05
7.89889e-05
7.42641e-05
6.92813e-05
6.40708e-05
5.8704e-05
5.32868e-05
4.79325e-05
4.27355e-05
3.77761e-05
3.3117e-05
2.88039e-05
2.48726e-05
2.13655e-05
1.83142e-05
1.57764e-05
1.37898e-05
1.27166e-05
1.24343e-05
1.3891e-05
1.94275e-05
0.000122732
0.000124602
0.000126611
0.000128629
0.000130605
0.000132571
0.00013444
0.000136143
0.000137657
0.000138941
0.000139939
0.000140623
0.000140954
0.000140888
0.000140389
0.00013942
0.000137954
0.00013597
0.00013347
0.000130486
0.000126982
0.000122963
0.000118541
0.000113711
0.00010837
0.000102442
9.60082e-05
8.93399e-05
8.27941e-05
7.66348e-05
7.0963e-05
6.5809e-05
6.12339e-05
5.72629e-05
5.40284e-05
5.15877e-05
4.8241e-05
5.49327e-05
3.13415e-05
0.000120796
0.000118918
0.000116956
0.000114679
0.000112366
0.00010996
0.000107478
0.000105016
0.000102607
0.000100234
9.78777e-05
9.55227e-05
9.31324e-05
9.06565e-05
8.80558e-05
8.52906e-05
8.2318e-05
7.91082e-05
7.56341e-05
7.18844e-05
6.78571e-05
6.35579e-05
5.90055e-05
5.42665e-05
4.94431e-05
4.46375e-05
3.99373e-05
3.54142e-05
3.1128e-05
2.7126e-05
2.34475e-05
2.01351e-05
1.72252e-05
1.47726e-05
1.2818e-05
1.16934e-05
1.13478e-05
1.25531e-05
1.72704e-05
0.000108302
0.000109989
0.000111809
0.00011365
0.000115469
0.000117298
0.000119055
0.000120685
0.000122168
0.000123468
0.000124539
0.000125355
0.000125886
0.000126091
0.000125941
0.000125402
0.000124442
0.00012304
0.000121183
0.000118906
0.000116156
0.000112913
0.000109272
0.000105241
0.000100736
9.56927e-05
9.01727e-05
8.43834e-05
7.86113e-05
7.309e-05
6.79334e-05
6.31982e-05
5.89253e-05
5.52376e-05
5.19509e-05
4.99347e-05
4.62415e-05
4.90403e-05
4.29041e-05
0.000106571
0.000104892
0.000103152
0.000101161
9.91387e-05
9.70474e-05
9.49083e-05
9.28065e-05
9.07666e-05
8.87732e-05
8.68063e-05
8.48534e-05
8.28839e-05
8.08496e-05
7.87167e-05
7.64455e-05
7.39953e-05
7.13374e-05
6.84406e-05
6.52838e-05
6.18544e-05
5.81552e-05
5.41967e-05
5.00304e-05
4.57468e-05
4.14476e-05
3.72118e-05
3.31004e-05
2.91693e-05
2.54662e-05
2.2032e-05
1.89089e-05
1.61374e-05
1.37685e-05
1.18465e-05
1.06771e-05
1.02745e-05
1.12791e-05
1.52972e-05
9.57449e-05
9.72643e-05
9.89153e-05
0.000100588
0.000102261
0.000103952
0.000105593
0.000107137
0.000108566
0.000109848
0.000110945
0.000111837
0.000112499
0.000112894
0.000113002
0.000112784
0.000112216
0.000111275
0.000109937
0.000108227
0.000106098
0.000103517
0.000100552
9.72188e-05
9.34545e-05
8.91979e-05
8.44918e-05
7.94964e-05
7.44392e-05
6.95214e-05
6.48623e-05
6.05333e-05
5.65714e-05
5.31204e-05
4.99629e-05
4.78553e-05
4.4934e-05
4.3996e-05
4.43933e-05
9.4198e-05
9.26924e-05
9.1147e-05
8.93994e-05
8.76255e-05
8.58004e-05
8.39477e-05
8.21422e-05
8.04028e-05
7.87143e-05
7.70638e-05
7.54349e-05
7.37988e-05
7.21154e-05
7.03541e-05
6.84813e-05
6.64563e-05
6.4249e-05
6.18294e-05
5.91727e-05
5.62611e-05
5.3085e-05
4.96494e-05
4.59971e-05
4.22106e-05
3.83791e-05
3.45724e-05
3.08459e-05
2.725e-05
2.38319e-05
2.06328e-05
1.7694e-05
1.5057e-05
1.27702e-05
1.08812e-05
9.6729e-06
9.22121e-06
1.00709e-05
1.35018e-05
8.47836e-05
8.61528e-05
8.76465e-05
8.91674e-05
9.07006e-05
9.22583e-05
9.37834e-05
9.52312e-05
9.65917e-05
9.78341e-05
9.89283e-05
9.98568e-05
0.000100599
0.000101124
0.000101412
0.000101434
0.000101163
0.000100578
9.96512e-05
9.83982e-05
9.67813e-05
9.47597e-05
9.2374e-05
8.9648e-05
8.65316e-05
8.29669e-05
7.89816e-05
7.46987e-05
7.02967e-05
6.59461e-05
6.17623e-05
5.78241e-05
5.41733e-05
5.0937e-05
4.79701e-05
4.57043e-05
4.33882e-05
4.07357e-05
4.17048e-05
8.34012e-05
8.20513e-05
8.06752e-05
7.91359e-05
7.75736e-05
7.59755e-05
7.43619e-05
7.28033e-05
7.13112e-05
6.98722e-05
6.84741e-05
6.71044e-05
6.57355e-05
6.4335e-05
6.28743e-05
6.13197e-05
5.96384e-05
5.78017e-05
5.57776e-05
5.354e-05
5.10687e-05
4.83481e-05
4.53751e-05
4.2184e-05
3.88456e-05
3.54407e-05
3.20278e-05
2.8659e-05
2.53789e-05
2.2232e-05
1.92585e-05
1.64978e-05
1.39914e-05
1.1785e-05
9.92935e-06
8.68737e-06
8.19263e-06
8.92875e-06
1.18774e-05
7.51898e-05
7.64223e-05
7.77724e-05
7.91557e-05
8.05548e-05
8.19863e-05
8.33957e-05
8.47468e-05
8.60278e-05
8.72167e-05
8.82841e-05
8.92199e-05
9.00023e-05
9.06105e-05
9.10256e-05
9.12207e-05
9.11742e-05
9.08624e-05
9.02621e-05
8.93765e-05
8.81767e-05
8.6624e-05
8.47301e-05
8.25265e-05
7.99703e-05
7.7009e-05
7.3658e-05
7.00105e-05
6.62035e-05
6.23806e-05
5.86473e-05
5.50848e-05
5.17379e-05
4.87122e-05
4.59297e-05
4.35958e-05
4.15115e-05
3.84585e-05
3.83619e-05
7.39512e-05
7.27439e-05
7.1515e-05
7.01558e-05
6.87758e-05
6.73709e-05
6.59602e-05
6.46059e-05
6.33175e-05
6.20825e-05
6.0892e-05
5.97326e-05
5.85804e-05
5.74049e-05
5.61828e-05
5.48867e-05
5.34853e-05
5.19514e-05
5.02547e-05
4.83695e-05
4.6273e-05
4.39454e-05
4.13777e-05
3.8595e-05
3.56578e-05
3.26367e-05
2.95874e-05
2.65498e-05
2.35653e-05
2.0675e-05
1.79167e-05
1.53274e-05
1.29483e-05
1.08208e-05
8.99831e-06
7.72715e-06
7.19574e-06
7.85132e-06
1.04109e-05
6.67707e-05
6.788e-05
6.90995e-05
7.03569e-05
7.16317e-05
7.29435e-05
7.42413e-05
7.54942e-05
7.66941e-05
7.78189e-05
7.88465e-05
7.97672e-05
8.05638e-05
8.12196e-05
8.17162e-05
8.2035e-05
8.21532e-05
8.20501e-05
8.17046e-05
8.11091e-05
8.02491e-05
7.90803e-05
7.75984e-05
7.5838e-05
7.37662e-05
7.13299e-05
6.85346e-05
6.54495e-05
6.21799e-05
5.8842e-05
5.55321e-05
5.23273e-05
4.92737e-05
4.64607e-05
4.38445e-05
4.15301e-05
3.94685e-05
3.64872e-05
3.53845e-05
6.56605e-05
6.45797e-05
6.34805e-05
6.2278e-05
6.10562e-05
5.98159e-05
5.85788e-05
5.73973e-05
5.62782e-05
5.52121e-05
5.41902e-05
5.32e-05
5.22211e-05
5.12296e-05
5.02029e-05
4.91149e-05
4.79403e-05
4.66542e-05
4.5229e-05
4.36371e-05
4.18567e-05
3.98659e-05
3.76518e-05
3.52306e-05
3.26536e-05
2.99796e-05
2.726e-05
2.45271e-05
2.1818e-05
1.91687e-05
1.66148e-05
1.41904e-05
1.19348e-05
9.88519e-06
8.09542e-06
6.79817e-06
6.23507e-06
6.84187e-06
9.09611e-06
5.93645e-05
6.03643e-05
6.14656e-05
6.26058e-05
6.37666e-05
6.49651e-05
6.6157e-05
6.73132e-05
6.84309e-05
6.9487e-05
7.04653e-05
7.13561e-05
7.21478e-05
7.2823e-05
7.33701e-05
7.37723e-05
7.40091e-05
7.40625e-05
7.39123e-05
7.35457e-05
7.29565e-05
7.21038e-05
7.09667e-05
6.95824e-05
6.79217e-05
6.59352e-05
6.36209e-05
6.10295e-05
5.82415e-05
5.53473e-05
5.24309e-05
4.95639e-05
4.67927e-05
4.41877e-05
4.17302e-05
3.94776e-05
3.73896e-05
3.45468e-05
3.28097e-05
5.83709e-05
5.74018e-05
5.64167e-05
5.53514e-05
5.42672e-05
5.31692e-05
5.20809e-05
5.10446e-05
5.0068e-05
4.91417e-05
4.82592e-05
4.74084e-05
4.65715e-05
4.57278e-05
4.48585e-05
4.39412e-05
4.29518e-05
4.1868e-05
4.06664e-05
3.9321e-05
3.7808e-05
3.61043e-05
3.41944e-05
3.20893e-05
2.98308e-05
2.74708e-05
2.50494e-05
2.25966e-05
2.01427e-05
1.77195e-05
1.53599e-05
1.30941e-05
1.09578e-05
8.9853e-06
7.22867e-06
5.90721e-06
5.31584e-06
5.90091e-06
7.92195e-06
5.28365e-05
5.37375e-05
5.47326e-05
5.57649e-05
5.68202e-05
5.79137e-05
5.90042e-05
6.00692e-05
6.11043e-05
6.20906e-05
6.3013e-05
6.38649e-05
6.46363e-05
6.53133e-05
6.58869e-05
6.63413e-05
6.66598e-05
6.68276e-05
6.68248e-05
6.66378e-05
6.62627e-05
6.56636e-05
6.48137e-05
6.37427e-05
6.2429e-05
6.08261e-05
5.89268e-05
5.67666e-05
5.4405e-05
5.19129e-05
4.93595e-05
4.68085e-05
4.43054e-05
4.19073e-05
3.96014e-05
3.74301e-05
3.53359e-05
3.25993e-05
3.04996e-05
5.19474e-05
5.10785e-05
5.01948e-05
4.92488e-05
4.8285e-05
4.73101e-05
4.63495e-05
4.54383e-05
4.45819e-05
4.37725e-05
4.30047e-05
4.22688e-05
4.15488e-05
4.08264e-05
4.00846e-05
3.93055e-05
3.84677e-05
3.75522e-05
3.65351e-05
3.53938e-05
3.41062e-05
3.26486e-05
3.10021e-05
2.91743e-05
2.71974e-05
2.51164e-05
2.29647e-05
2.07666e-05
1.85477e-05
1.6336e-05
1.41597e-05
1.20458e-05
1.00259e-05
8.12996e-06
6.4066e-06
5.06112e-06
4.44272e-06
5.03111e-06
6.88105e-06
4.70724e-05
4.78832e-05
4.87828e-05
4.97163e-05
5.06748e-05
5.16712e-05
5.26666e-05
5.36452e-05
5.45993e-05
5.55159e-05
5.63795e-05
5.71864e-05
5.79267e-05
5.8592e-05
5.91724e-05
5.96555e-05
6.0029e-05
6.02768e-05
6.03845e-05
6.03357e-05
6.01293e-05
5.97317e-05
5.91163e-05
5.83036e-05
5.72798e-05
5.60026e-05
5.44582e-05
5.26718e-05
5.06855e-05
4.85533e-05
4.63323e-05
4.40763e-05
4.18236e-05
3.96277e-05
3.7473e-05
3.5392e-05
3.33196e-05
3.06724e-05
2.83697e-05
4.62754e-05
4.54969e-05
4.47043e-05
4.38625e-05
4.30044e-05
4.21381e-05
4.12871e-05
4.04827e-05
3.97283e-05
3.90174e-05
3.83459e-05
3.77049e-05
3.70806e-05
3.64581e-05
3.58223e-05
3.51567e-05
3.44434e-05
3.36649e-05
3.28011e-05
3.18307e-05
3.07321e-05
2.94831e-05
2.80638e-05
2.64768e-05
2.47483e-05
2.29154e-05
2.10057e-05
1.90395e-05
1.70373e-05
1.50228e-05
1.30199e-05
1.10518e-05
9.14616e-06
7.3274e-06
5.63828e-06
4.26722e-06
3.61928e-06
4.23504e-06
5.96485e-06
4.19731e-05
4.27038e-05
4.35153e-05
4.43599e-05
4.52291e-05
4.61349e-05
4.70431e-05
4.79388e-05
4.8816e-05
4.96632e-05
5.04676e-05
5.12254e-05
5.19301e-05
5.25735e-05
5.31478e-05
5.36437e-05
5.40492e-05
5.43517e-05
5.45387e-05
5.45941e-05
5.45166e-05
5.42782e-05
5.38512e-05
5.32525e-05
5.24683e-05
5.14619e-05
5.02184e-05
4.87532e-05
4.70952e-05
4.52834e-05
4.33627e-05
4.13786e-05
3.93634e-05
3.73581e-05
3.5356e-05
3.33684e-05
3.13413e-05
2.87867e-05
2.63807e-05
4.12584e-05
4.05617e-05
3.98508e-05
3.90996e-05
3.83353e-05
3.75646e-05
3.68088e-05
3.60964e-05
3.54293e-05
3.48025e-05
3.42122e-05
3.36506e-05
3.31061e-05
3.25655e-05
3.20169e-05
3.14451e-05
3.08344e-05
3.01698e-05
2.94331e-05
2.86053e-05
2.76667e-05
2.65948e-05
2.53701e-05
2.3992e-05
2.24806e-05
2.08682e-05
1.91759e-05
1.742e-05
1.56167e-05
1.37855e-05
1.19465e-05
1.01186e-05
8.32529e-06
6.58513e-06
4.93287e-06
3.53379e-06
2.84901e-06
3.51759e-06
5.16682e-06
3.74552e-05
3.8114e-05
3.88455e-05
3.9609e-05
4.03969e-05
4.12188e-05
4.20464e-05
4.28644e-05
4.36692e-05
4.44494e-05
4.51953e-05
4.5903e-05
4.65676e-05
4.71817e-05
4.77407e-05
4.82347e-05
4.86564e-05
4.8994e-05
4.9236e-05
4.93676e-05
4.93878e-05
4.92729e-05
4.89969e-05
4.85702e-05
4.79827e-05
4.72018e-05
4.62115e-05
4.50195e-05
4.36451e-05
4.21159e-05
4.04652e-05
3.87286e-05
3.69342e-05
3.51132e-05
3.3259e-05
3.13734e-05
2.94085e-05
2.69594e-05
2.45217e-05
3.68146e-05
3.61909e-05
3.55537e-05
3.48822e-05
3.42009e-05
3.35143e-05
3.28421e-05
3.22093e-05
3.16177e-05
3.10624e-05
3.05407e-05
3.00469e-05
2.95697e-05
2.90975e-05
2.86207e-05
2.81263e-05
2.76008e-05
2.70312e-05
2.64008e-05
2.56923e-05
2.48879e-05
2.39663e-05
2.29085e-05
2.17118e-05
2.03916e-05
1.89734e-05
1.74756e-05
1.59095e-05
1.42885e-05
1.26275e-05
1.09433e-05
9.25082e-06
7.56886e-06
5.91087e-06
4.30073e-06
2.87159e-06
2.13472e-06
2.88531e-06
4.48151e-06
3.34474e-05
3.40405e-05
3.47002e-05
3.53896e-05
3.6103e-05
3.68489e-05
3.7601e-05
3.83469e-05
3.90836e-05
3.98e-05
4.04884e-05
4.11459e-05
4.17679e-05
4.2349e-05
4.28853e-05
4.337e-05
4.37952e-05
4.41512e-05
4.44283e-05
4.46144e-05
4.47068e-05
4.46863e-05
4.45294e-05
4.42406e-05
4.38119e-05
4.3216e-05
4.2437e-05
4.14758e-05
4.03448e-05
3.90621e-05
3.76515e-05
3.61403e-05
3.45489e-05
3.29024e-05
3.1193e-05
2.94173e-05
2.75268e-05
2.5192e-05
2.27819e-05
3.28732e-05
3.23144e-05
3.17435e-05
3.11433e-05
3.05351e-05
2.99229e-05
2.93243e-05
2.8761e-05
2.82348e-05
2.77413e-05
2.72792e-05
2.68416e-05
2.64208e-05
2.60072e-05
2.55912e-05
2.51615e-05
2.47069e-05
2.4216e-05
2.36743e-05
2.3066e-05
2.23749e-05
2.15818e-05
2.06672e-05
1.96267e-05
1.84736e-05
1.72274e-05
1.59031e-05
1.45088e-05
1.30543e-05
1.15516e-05
1.00136e-05
8.45254e-06
6.88215e-06
5.31133e-06
3.75223e-06
2.29542e-06
1.47743e-06
2.3487e-06
3.90375e-06
2.98873e-05
3.04214e-05
3.10155e-05
3.16378e-05
3.22831e-05
3.29589e-05
3.36417e-05
3.43207e-05
3.49934e-05
3.56494e-05
3.62828e-05
3.68908e-05
3.74698e-05
3.80159e-05
3.85254e-05
3.89929e-05
3.9412e-05
3.97746e-05
4.00731e-05
4.02963e-05
4.04404e-05
4.04904e-05
4.04246e-05
4.02443e-05
3.99429e-05
3.94978e-05
3.88925e-05
3.81252e-05
3.72013e-05
3.6132e-05
3.4933e-05
3.36237e-05
3.22197e-05
3.07367e-05
2.91687e-05
2.75047e-05
2.57036e-05
2.34942e-05
2.11518e-05
2.93724e-05
2.88723e-05
2.83605e-05
2.78239e-05
2.7281e-05
2.67348e-05
2.62011e-05
2.56991e-05
2.523e-05
2.47902e-05
2.43788e-05
2.39907e-05
2.36182e-05
2.32533e-05
2.28882e-05
2.25133e-05
2.21187e-05
2.16941e-05
2.12267e-05
2.07032e-05
2.01084e-05
1.94241e-05
1.86324e-05
1.77277e-05
1.67199e-05
1.56257e-05
1.44559e-05
1.32165e-05
1.19145e-05
1.0559e-05
9.15974e-06
7.72588e-06
6.26802e-06
4.79118e-06
3.29722e-06
1.82823e-06
8.79141e-07
1.92265e-06
3.42923e-06
2.67211e-05
2.72018e-05
2.77364e-05
2.8298e-05
2.88812e-05
2.94929e-05
3.01122e-05
3.07295e-05
3.13424e-05
3.19421e-05
3.25231e-05
3.30832e-05
3.36197e-05
3.41291e-05
3.46089e-05
3.50549e-05
3.54616e-05
3.58228e-05
3.61311e-05
3.63767e-05
3.65556e-05
3.66566e-05
3.66601e-05
3.65636e-05