/*--------------------------------*- C++ -*----------------------------------*\
| =========                 |                                                 |
| \\      /  F ield         | OpenFOAM: The Open Source CFD Toolbox           |
|  \\    /   O peration     | Version:  2312                                  |
|   \\  /    A nd           | Website:  www.openfoam.com                      |
|    \\/     M anipulation  |                                                 |
\*---------------------------------------------------------------------------*/
FoamFile
{
    version     2.0;
    format      ascii;
    arch        "LSB;label=32;scalar=64";
    class       volScalarField;
    location    "200";
    object      turbulenceProperties:nut;
}
// * * * * * * * * * * * * * * * * * * * * * * * * * * * * * * * * * * * * * //

dimensions      [0 2 -1 0 0 0 0];

internalField   nonuniform List<scalar> 
10720
(
2.5633e-05
2.93377e-05
3.42975e-05
4.07255e-05
4.90083e-05
5.96769e-05
7.34505e-05
9.06915e-05
0.00011243
0.000139708
0.000174443
0.000219775
0.000280073
0.000363262
0.000482731
0.000660666
0.000940123
0.0013885
0.00219588
0.0035777
0.00677257
0.0126845
0.0327503
0.0752587
0.0945186
0.0959259
0.0967583
0.100036
0.103455
0.105179
0.105113
0.10379
0.101368
0.0979116
0.0932921
0.0874319
0.0790432
0.0689365
0.0336113
2.24297e-05
1.96693e-05
1.69574e-05
1.44823e-05
1.21611e-05
1.00287e-05
8.17236e-06
6.88983e-06
8.08601e-06
1.08192e-05
1.55457e-05
2.33369e-05
3.57484e-05
5.47058e-05
8.17293e-05
0.000118391
0.000167773
0.000237108
0.00034063
0.000503736
0.000776509
0.00124731
0.00212803
0.0037878
0.00737035
0.0147996
0.032682
0.0665934
0.0936645
0.105153
0.108536
0.109472
0.109564
0.109065
0.108059
0.106658
0.104505
0.102059
0.092538
5.08903e-06
4.98393e-06
4.8891e-06
4.81043e-06
4.72022e-06
4.63731e-06
4.57573e-06
4.52163e-06
4.49804e-06
4.51661e-06
4.54545e-06
4.80437e-06
5.82585e-06
8.51917e-06
1.60296e-05
3.59133e-05
8.19121e-05
0.000160352
0.000307988
0.000580759
0.00127028
0.00277802
0.00677599
0.0195894
0.0380883
0.0612464
0.0897211
0.12037
0.145599
0.160103
0.165692
0.166565
0.16503
0.161765
0.157344
0.151965
0.146746
0.138068
0.13774
5.17279e-06
5.28603e-06
5.38256e-06
5.51338e-06
5.64751e-06
5.78354e-06
5.91562e-06
6.0279e-06
5.96037e-06
5.81553e-06
5.62062e-06
5.38553e-06
5.11907e-06
4.82449e-06
4.49094e-06
4.11529e-06
3.67258e-06
3.15877e-06
2.54496e-06
1.84059e-06
1.07153e-06
4.18815e-07
5.38128e-08
1.4446e-09
1.11537e-08
9.51095e-05
0.000548163
0.00420106
0.0142045
0.0288351
0.0438473
0.0551741
0.0619274
0.0657018
0.0680945
0.0700822
0.0718134
0.0753922
0.0785894
6.26002e-06
6.27704e-06
6.29476e-06
6.31386e-06
6.33731e-06
6.36354e-06
6.39355e-06
6.42865e-06
6.47007e-06
6.51856e-06
6.5762e-06
6.64688e-06
6.72589e-06
6.86455e-06
6.8823e-06
6.47862e-06
5.06154e-06
3.8835e-06
6.17314e-08
0.000100219
2.95076e-05
0.000123783
0.000106132
0.000691067
0.00290726
0.00704176
0.0145458
0.028974
0.0539186
0.088976
0.127337
0.159242
0.180107
0.192202
0.199001
0.201988
0.203303
0.197627
0.20579
6.24703e-06
6.22806e-06
6.21348e-06
6.192e-06
6.17355e-06
6.15371e-06
6.13587e-06
6.12162e-06
6.12712e-06
6.14274e-06
6.16287e-06
6.18693e-06
6.21622e-06
6.24897e-06
6.28588e-06
6.32666e-06
6.37296e-06
6.42604e-06
6.48948e-06
6.56665e-06
6.66578e-06
6.79302e-06
6.97372e-06
7.16677e-06
7.42694e-06
7.1456e-06
7.22925e-06
2.46047e-06
8.57773e-05
0.000798395
0.00303934
0.00758278
0.0143137
0.0225148
0.0312486
0.0396989
0.0470997
0.0537765
0.0632659
6.08242e-06
6.08018e-06
6.07963e-06
6.08001e-06
6.08093e-06
6.08357e-06
6.08843e-06
6.09513e-06
6.10512e-06
6.11864e-06
6.13651e-06
6.15991e-06
6.19037e-06
6.22906e-06
6.2798e-06
6.33725e-06
6.24895e-06
5.85061e-06
4.0451e-06
1.36632e-06
9.09752e-12
2.56413e-06
1.08857e-06
0.000126241
0.000606499
0.00149598
0.00314364
0.000110504
0.00283418
0.01158
0.0320388
0.0671171
0.11177
0.154101
0.186295
0.20868
0.225371
0.233015
0.248602
6.08278e-06
6.0851e-06
6.08809e-06
6.0905e-06
6.09452e-06
6.09675e-06
6.09812e-06
6.09904e-06
6.09684e-06
6.09414e-06
6.09068e-06
6.08701e-06
6.08368e-06
6.08042e-06
6.07723e-06
6.07387e-06
6.07029e-06
6.06635e-06
6.06138e-06
6.05648e-06
6.05132e-06
6.04579e-06
6.03919e-06
6.03313e-06
6.02653e-06
6.02932e-06
6.02136e-06
6.08538e-06
5.98359e-06
6.00666e-06
5.0272e-06
4.07296e-06
0.000228907
0.00105485
0.0030619
0.00692804
0.0131542
0.0219325
0.0393198
6.10686e-06
6.10752e-06
6.10783e-06
6.10877e-06
6.11036e-06
6.11235e-06
6.115e-06
6.11852e-06
6.12313e-06
6.12916e-06
6.13705e-06
6.14738e-06
6.16094e-06
6.1784e-06
6.20208e-06
6.22964e-06
6.27155e-06
6.32186e-06
6.4786e-06
6.29952e-06
3.5872e-06
4.9805e-07
9.67579e-09
3.43922e-10
0
0
0
1.62254e-06
0.000628278
0.000126148
0.000898425
0.00632959
0.0253089
0.0636355
0.115145
0.165862
0.208219
0.239621
0.269581
6.10663e-06
6.10553e-06
6.10651e-06
6.10574e-06
6.10688e-06
6.1058e-06
6.10359e-06
6.10154e-06
6.10046e-06
6.10031e-06
6.1004e-06
6.10057e-06
6.10118e-06
6.10194e-06
6.10309e-06
6.10447e-06
6.10615e-06
6.10809e-06
6.11037e-06
6.11291e-06
6.11572e-06
6.1188e-06
6.12227e-06
6.12611e-06
6.13111e-06
6.13539e-06
6.14886e-06
6.12782e-06
6.27367e-06
5.68356e-06
8.76236e-06
5.44474e-07
2.6161e-05
0.000249912
6.59662e-05
0.000314107
0.0010503
0.00176983
0.0137754
6.10106e-06
6.1008e-06
6.10133e-06
6.1018e-06
6.10206e-06
6.1026e-06
6.10332e-06
6.1042e-06
6.10552e-06
6.1073e-06
6.10969e-06
6.11298e-06
6.11738e-06
6.12333e-06
6.1315e-06
6.14242e-06
6.15708e-06
6.17558e-06
6.20749e-06
6.30268e-06
6.4783e-06
5.71117e-06
3.387e-06
2.40125e-07
9.87148e-09
2.9468e-09
9.79296e-10
2.54905e-11
0
2.51795e-06
0.00019326
0.00149447
0.00211971
0.00889714
0.0330708
0.0843534
0.149548
0.213195
0.267566
6.10064e-06
6.10034e-06
6.1015e-06
6.10146e-06
6.1033e-06
6.10308e-06
6.10158e-06
6.10022e-06
6.0993e-06
6.09884e-06
6.09851e-06
6.09829e-06
6.09829e-06
6.09824e-06
6.09835e-06
6.09848e-06
6.09869e-06
6.09895e-06
6.09925e-06
6.09954e-06
6.09981e-06
6.09998e-06
6.10007e-06
6.09991e-06
6.0998e-06
6.10003e-06
6.10034e-06
6.10205e-06
6.10152e-06
6.11035e-06
6.09077e-06
6.17255e-06
5.48987e-06
4.17843e-06
2.18796e-06
4.54501e-05
0.000243411
0.00046095
0.00241558
6.10194e-06
6.10198e-06
6.10226e-06
6.10231e-06
6.10247e-06
6.10262e-06
6.10287e-06
6.1033e-06
6.10384e-06
6.10459e-06
6.10563e-06
6.10706e-06
6.10905e-06
6.1118e-06
6.11558e-06
6.12091e-06
6.12804e-06
6.13584e-06
6.14595e-06
6.15334e-06
6.23898e-06
6.49328e-06
6.62645e-06
5.73175e-06
3.70906e-06
1.77261e-06
5.72927e-07
1.44073e-08
5.88366e-09
3.77693e-10
0
0
0.000481893
0.00207649
0.00111246
0.017864
0.069001
0.153942
0.239514
6.10158e-06
6.10077e-06
6.10121e-06
6.1009e-06
6.10259e-06
6.10253e-06
6.10124e-06
6.1e-06
6.09932e-06
6.09902e-06
6.09888e-06
6.09886e-06
6.0989e-06
6.09888e-06
6.09897e-06
6.09905e-06
6.09921e-06
6.09945e-06
6.0998e-06
6.10025e-06
6.10079e-06
6.10142e-06
6.10217e-06
6.10304e-06
6.10412e-06
6.10553e-06
6.10734e-06
6.1096e-06
6.11241e-06
6.11595e-06
6.1204e-06
6.13108e-06
6.20195e-06
5.7636e-06
3.27835e-06
2.92855e-07
9.52314e-09
2.28415e-11
6.95951e-05
6.10213e-06
6.10208e-06
6.10241e-06
6.10253e-06
6.10246e-06
6.10248e-06
6.10246e-06
6.10241e-06
6.10246e-06
6.10254e-06
6.1027e-06
6.10301e-06
6.10347e-06
6.10414e-06
6.10513e-06
6.1066e-06
6.10876e-06
6.11126e-06
6.11438e-06
6.11584e-06
6.12096e-06
6.1419e-06
6.26193e-06
6.54929e-06
6.77259e-06
6.52474e-06
5.78578e-06
4.34797e-06
2.43823e-06
1.9514e-07
1.15856e-08
2.17859e-10
0
0
0.000252135
0.00442758
0.0120029
0.0797266
0.186108
6.10142e-06
6.10028e-06
6.10017e-06
6.09971e-06
6.10134e-06
6.10151e-06
6.10054e-06
6.09952e-06
6.0991e-06
6.09894e-06
6.09898e-06
6.09904e-06
6.09896e-06
6.099e-06
6.09899e-06
6.09895e-06
6.09892e-06
6.09894e-06
6.09902e-06
6.09914e-06
6.09931e-06
6.0995e-06
6.09973e-06
6.09995e-06
6.10017e-06
6.10045e-06
6.10081e-06
6.10122e-06
6.10167e-06
6.10195e-06
6.10286e-06
6.10048e-06
6.11164e-06
6.06625e-06
6.19461e-06
5.02565e-06
2.82398e-06
1.77683e-08
7.71913e-07
6.10225e-06
6.10231e-06
6.10258e-06
6.10258e-06
6.1024e-06
6.10229e-06
6.1021e-06
6.10196e-06
6.1018e-06
6.10172e-06
6.10172e-06
6.10179e-06
6.10199e-06
6.10233e-06
6.10287e-06
6.1037e-06
6.10496e-06
6.10662e-06
6.10829e-06
6.11019e-06
6.111e-06
6.1101e-06
6.10894e-06
6.15163e-06
6.29961e-06
6.55389e-06
6.81732e-06
7.0583e-06
7.04324e-06
5.66581e-06
3.90433e-06
1.05346e-07
4.62609e-09
0
0
0
0.00330086
0.0236594
0.119898
6.10133e-06
6.09999e-06
6.09955e-06
6.09897e-06
6.10056e-06
6.10084e-06
6.10006e-06
6.09919e-06
6.09896e-06
6.09892e-06
6.099e-06
6.09905e-06
6.09901e-06
6.09901e-06
6.09899e-06
6.09901e-06
6.09901e-06
6.09897e-06
6.09896e-06
6.09899e-06
6.09907e-06
6.09919e-06
6.09937e-06
6.09961e-06
6.09991e-06
6.10036e-06
6.101e-06
6.10184e-06
6.1029e-06
6.10419e-06
6.10583e-06
6.10768e-06
6.11096e-06
6.11134e-06
6.14137e-06
6.21813e-06
6.66106e-06
4.52084e-06
2.50442e-09
6.10202e-06
6.1021e-06
6.10237e-06
6.10235e-06
6.10217e-06
6.10205e-06
6.10188e-06
6.10168e-06
6.10154e-06
6.10142e-06
6.10132e-06
6.10127e-06
6.10124e-06
6.10124e-06
6.10128e-06
6.10136e-06
6.10154e-06
6.10181e-06
6.10205e-06
6.10247e-06
6.10329e-06
6.10486e-06
6.10363e-06
6.09631e-06
6.09559e-06
6.13738e-06
6.24015e-06
6.42932e-06
6.73567e-06
7.05545e-06
7.50595e-06
5.99575e-06
1.56356e-06
1.55142e-08
1.69643e-13
0
3.28959e-07
0.000858817
0.0638062
6.10117e-06
6.09993e-06
6.09932e-06
6.09862e-06
6.10009e-06
6.10043e-06
6.09972e-06
6.09898e-06
6.09884e-06
6.09881e-06
6.0989e-06
6.09896e-06
6.09893e-06
6.09892e-06
6.09888e-06
6.09891e-06
6.09894e-06
6.09897e-06
6.09898e-06
6.09895e-06
6.09892e-06
6.0989e-06
6.09894e-06
6.09901e-06
6.09912e-06
6.09932e-06
6.09963e-06
6.10006e-06
6.10059e-06
6.10123e-06
6.10192e-06
6.10296e-06
6.10301e-06
6.10874e-06
6.08896e-06
6.17681e-06
5.81288e-06
8.79501e-06
5.41569e-07
6.10179e-06
6.1018e-06
6.10199e-06
6.10188e-06
6.10168e-06
6.10152e-06
6.10135e-06
6.10114e-06
6.10099e-06
6.10085e-06
6.10073e-06
6.10064e-06
6.10053e-06
6.10047e-06
6.10047e-06
6.10055e-06
6.10073e-06
6.10105e-06
6.10145e-06
6.10187e-06
6.10231e-06
6.10296e-06
6.10401e-06
6.10335e-06
6.09704e-06
6.08779e-06
6.08513e-06
6.1033e-06
6.16544e-06
6.3365e-06
6.64316e-06
7.43448e-06
7.11497e-06
4.24531e-06
7.62048e-11
4.15328e-17
0
0.000795666
0.0284932
6.10126e-06
6.10022e-06
6.09949e-06
6.09863e-06
6.09992e-06
6.10024e-06
6.09958e-06
6.09896e-06
6.09878e-06
6.09873e-06
6.09879e-06
6.09883e-06
6.09882e-06
6.09877e-06
6.09872e-06
6.09874e-06
6.09877e-06
6.09883e-06
6.09887e-06
6.0989e-06
6.0989e-06
6.09884e-06
6.09882e-06
6.09883e-06
6.09888e-06
6.09902e-06
6.09927e-06
6.09966e-06
6.10017e-06
6.10083e-06
6.1016e-06
6.10278e-06
6.1031e-06
6.10811e-06
6.09298e-06
6.16552e-06
5.85203e-06
7.18157e-06
4.32095e-06
6.10177e-06
6.10161e-06
6.10165e-06
6.10144e-06
6.10119e-06
6.101e-06
6.10083e-06
6.10064e-06
6.10052e-06
6.10041e-06
6.10032e-06
6.10027e-06
6.10025e-06
6.10023e-06
6.10022e-06
6.10021e-06
6.10019e-06
6.10018e-06
6.10021e-06
6.10038e-06
6.10071e-06
6.10117e-06
6.10189e-06
6.10301e-06
6.10349e-06
6.10133e-06
6.09523e-06
6.086e-06
6.07278e-06
6.08213e-06
6.10439e-06
6.36839e-06
6.86862e-06
8.01325e-06
4.32015e-06
1.41445e-08
0
0.000231892
0.0108696
6.10159e-06
6.10068e-06
6.09978e-06
6.09872e-06
6.09984e-06
6.10014e-06
6.09952e-06
6.09897e-06
6.09877e-06
6.09869e-06
6.09871e-06
6.09873e-06
6.0987e-06
6.0986e-06
6.09852e-06
6.09852e-06
6.09854e-06
6.0986e-06
6.09866e-06
6.09872e-06
6.09877e-06
6.09881e-06
6.0988e-06
6.09875e-06
6.09872e-06
6.09875e-06
6.09887e-06
6.0991e-06
6.09944e-06
6.09989e-06
6.10044e-06
6.10118e-06
6.10177e-06
6.1038e-06
6.10061e-06
6.11932e-06
6.05754e-06
6.21268e-06
6.15835e-06
6.1019e-06
6.10156e-06
6.10145e-06
6.10113e-06
6.10081e-06
6.1006e-06
6.10039e-06
6.10019e-06
6.10006e-06
6.09994e-06
6.09986e-06
6.0998e-06
6.09977e-06
6.09975e-06
6.09973e-06
6.09971e-06
6.09969e-06
6.09972e-06
6.0998e-06
6.09995e-06
6.10015e-06
6.10044e-06
6.10082e-06
6.10144e-06
6.10242e-06
6.10352e-06
6.10391e-06
6.10261e-06
6.09606e-06
6.08511e-06
6.06135e-06
6.05082e-06
6.15403e-06
6.60822e-06
8.62152e-06
3.40758e-06
9.30652e-11
4.68327e-05
0.00347584
6.10191e-06
6.10104e-06
6.09998e-06
6.09874e-06
6.0997e-06
6.1e-06
6.09946e-06
6.09898e-06
6.09877e-06
6.09866e-06
6.09864e-06
6.09861e-06
6.09856e-06
6.09844e-06
6.09834e-06
6.09831e-06
6.09831e-06
6.09836e-06
6.09843e-06
6.09852e-06
6.0986e-06
6.09867e-06
6.0987e-06
6.0987e-06
6.09866e-06
6.09862e-06
6.09866e-06
6.09881e-06
6.09906e-06
6.09942e-06
6.0999e-06
6.1005e-06
6.10126e-06
6.10203e-06
6.10351e-06
6.10219e-06
6.11669e-06
6.05317e-06
6.2616e-06
6.10195e-06
6.10152e-06
6.10133e-06
6.10092e-06
6.10057e-06
6.10032e-06
6.10008e-06
6.09986e-06
6.09971e-06
6.09958e-06
6.09949e-06
6.09944e-06
6.09942e-06
6.09942e-06
6.09943e-06
6.09944e-06
6.09946e-06
6.09945e-06
6.09945e-06
6.09952e-06
6.09965e-06
6.09986e-06
6.10014e-06
6.10053e-06
6.1011e-06
6.10198e-06
6.10318e-06
6.10466e-06
6.10577e-06
6.10424e-06
6.09804e-06
6.07135e-06
6.0518e-06
6.02064e-06
6.51801e-06
1.04766e-05
5.73616e-09
4.33652e-07
0.000821403
6.10202e-06
6.10117e-06
6.10001e-06
6.09868e-06
6.09949e-06
6.0998e-06
6.09934e-06
6.09892e-06
6.09872e-06
6.0986e-06
6.09854e-06
6.0985e-06
6.09843e-06
6.09832e-06
6.09818e-06
6.09812e-06
6.0981e-06
6.09814e-06
6.0982e-06
6.09829e-06
6.09837e-06
6.09846e-06
6.09853e-06
6.09856e-06
6.09858e-06
6.0985e-06
6.09849e-06
6.09856e-06
6.09871e-06
6.09897e-06
6.09933e-06
6.09979e-06
6.10042e-06
6.10099e-06
6.10251e-06
6.10094e-06
6.11225e-06
6.08093e-06
6.14848e-06
6.10179e-06
6.10136e-06
6.10113e-06
6.1007e-06
6.10036e-06
6.10011e-06
6.09986e-06
6.09963e-06
6.09947e-06
6.09933e-06
6.09923e-06
6.09918e-06
6.09916e-06
6.09915e-06
6.09917e-06
6.09918e-06
6.09921e-06
6.09921e-06
6.09921e-06
6.09924e-06
6.09932e-06
6.09946e-06
6.09966e-06
6.09993e-06
6.10034e-06
6.10091e-06
6.10171e-06
6.1028e-06
6.10448e-06
6.1063e-06
6.10833e-06
6.1056e-06
6.08397e-06
6.10291e-06
5.62688e-06
8.74482e-06
3.75515e-06
6.80024e-12
4.37979e-08
6.10187e-06
6.10112e-06
6.09997e-06
6.09861e-06
6.09928e-06
6.09955e-06
6.09916e-06
6.0988e-06
6.09861e-06
6.09847e-06
6.09841e-06
6.09835e-06
6.09827e-06
6.09815e-06
6.098e-06
6.09792e-06
6.09788e-06
6.0979e-06
6.09794e-06
6.09802e-06
6.09811e-06
6.09822e-06
6.0983e-06
6.09837e-06
6.09842e-06
6.09841e-06
6.09836e-06
6.09836e-06
6.09844e-06
6.09861e-06
6.09889e-06
6.09926e-06
6.09976e-06
6.10033e-06
6.10125e-06
6.10156e-06
6.10463e-06
6.10174e-06
6.1075e-06
6.10144e-06
6.10104e-06
6.10082e-06
6.10042e-06
6.10012e-06
6.0999e-06
6.09966e-06
6.09945e-06
6.09929e-06
6.09916e-06
6.09907e-06
6.09902e-06
6.099e-06
6.099e-06
6.09903e-06
6.09906e-06
6.0991e-06
6.09912e-06
6.09913e-06
6.09914e-06
6.09917e-06
6.09924e-06
6.09936e-06
6.09955e-06
6.09984e-06
6.10028e-06
6.10087e-06
6.10161e-06
6.10258e-06
6.10406e-06
6.10574e-06
6.11112e-06
6.09866e-06
6.15494e-06
5.87124e-06
6.12085e-06
1.02939e-05
7.06574e-10
1.23755e-10
6.10161e-06
6.10102e-06
6.09997e-06
6.09861e-06
6.09912e-06
6.09934e-06
6.09899e-06
6.09865e-06
6.09846e-06
6.09831e-06
6.09824e-06
6.09818e-06
6.09809e-06
6.09798e-06
6.09782e-06
6.09773e-06
6.09767e-06
6.09768e-06
6.09771e-06
6.09778e-06
6.09787e-06
6.09797e-06
6.09807e-06
6.09816e-06
6.09824e-06
6.09828e-06
6.09825e-06
6.0982e-06
6.09822e-06
6.09831e-06
6.0985e-06
6.09878e-06
6.09918e-06
6.09968e-06
6.10032e-06
6.10116e-06
6.10188e-06
6.1051e-06
6.10207e-06
6.10106e-06
6.10067e-06
6.10046e-06
6.10011e-06
6.09986e-06
6.09966e-06
6.09945e-06
6.09929e-06
6.09917e-06
6.09907e-06
6.09902e-06
6.099e-06
6.099e-06
6.09902e-06
6.09905e-06
6.09909e-06
6.09913e-06
6.09916e-06
6.09917e-06
6.09916e-06
6.09916e-06
6.09919e-06
6.09925e-06
6.09936e-06
6.09956e-06
6.09988e-06
6.10035e-06
6.10096e-06
6.10164e-06
6.1026e-06
6.10342e-06
6.10669e-06
6.10585e-06
6.1113e-06
6.20533e-06
5.27215e-06
1.10898e-05
6.1381e-08
3.74398e-14
6.10138e-06
6.101e-06
6.10004e-06
6.0987e-06
6.09906e-06
6.09921e-06
6.09886e-06
6.09852e-06
6.09829e-06
6.09813e-06
6.09804e-06
6.09797e-06
6.09788e-06
6.09777e-06
6.09763e-06
6.09754e-06
6.09747e-06
6.09746e-06
6.09748e-06
6.09754e-06
6.09762e-06
6.09773e-06
6.09785e-06
6.09795e-06
6.09805e-06
6.09811e-06
6.09813e-06
6.09807e-06
6.09803e-06
6.09807e-06
6.09819e-06
6.0984e-06
6.09871e-06
6.09912e-06
6.09965e-06
6.10041e-06
6.10099e-06
6.10376e-06
6.10245e-06
6.10077e-06
6.10036e-06
6.10014e-06
6.09985e-06
6.09962e-06
6.09942e-06
6.09927e-06
6.09918e-06
6.09912e-06
6.09909e-06
6.09908e-06
6.09909e-06
6.09911e-06
6.09913e-06
6.09917e-06
6.09921e-06
6.09925e-06
6.09927e-06
6.0993e-06
6.0993e-06
6.09928e-06
6.09927e-06
6.09929e-06
6.09935e-06
6.09947e-06
6.0997e-06
6.10005e-06
6.10054e-06
6.10113e-06
6.10182e-06
6.10271e-06
6.10287e-06
6.11044e-06
6.0774e-06
6.27754e-06
5.44874e-06
8.42953e-06
3.01863e-06
1.40727e-09
6.10125e-06
6.10103e-06
6.10015e-06
6.09882e-06
6.09905e-06
6.09913e-06
6.09879e-06
6.09841e-06
6.09815e-06
6.09796e-06
6.09785e-06
6.09777e-06
6.09768e-06
6.09757e-06
6.09744e-06
6.09734e-06
6.09727e-06
6.09724e-06
6.09725e-06
6.09731e-06
6.09738e-06
6.09749e-06
6.09761e-06
6.09773e-06
6.09784e-06
6.09792e-06
6.09797e-06
6.09797e-06
6.09791e-06
6.0979e-06
6.09796e-06
6.09809e-06
6.09832e-06
6.09865e-06
6.09909e-06
6.09971e-06
6.10035e-06
6.10239e-06
6.10219e-06
6.10059e-06
6.10017e-06
6.09993e-06
6.09965e-06
6.09943e-06
6.09924e-06
6.09915e-06
6.09913e-06
6.09914e-06
6.09918e-06
6.09922e-06
6.09924e-06
6.09927e-06
6.0993e-06
6.09934e-06
6.09938e-06
6.09942e-06
6.09945e-06
6.09947e-06
6.09948e-06
6.09946e-06
6.09944e-06
6.09944e-06
6.09945e-06
6.09952e-06
6.09968e-06
6.09994e-06
6.10032e-06
6.10082e-06
6.10134e-06
6.10236e-06
6.10147e-06
6.1099e-06
6.0795e-06
6.20171e-06
5.86085e-06
6.46766e-06
7.56056e-06
2.55927e-07
6.10117e-06
6.10104e-06
6.10021e-06
6.09892e-06
6.09905e-06
6.09908e-06
6.09873e-06
6.09833e-06
6.09803e-06
6.09781e-06
6.09767e-06
6.09757e-06
6.09747e-06
6.09736e-06
6.09724e-06
6.09714e-06
6.09707e-06
6.09704e-06
6.09705e-06
6.09709e-06
6.09716e-06
6.09727e-06
6.09739e-06
6.09752e-06
6.09764e-06
6.09774e-06
6.09781e-06
6.09784e-06
6.09783e-06
6.09778e-06
6.09778e-06
6.09785e-06
6.09801e-06
6.09825e-06
6.09861e-06
6.09911e-06
6.09971e-06
6.10141e-06
6.10143e-06
6.10048e-06
6.10007e-06
6.09979e-06
6.09953e-06
6.09931e-06
6.09916e-06
6.09914e-06
6.09918e-06
6.09924e-06
6.09932e-06
6.09938e-06
6.09942e-06
6.09945e-06
6.09949e-06
6.09952e-06
6.09955e-06
6.09959e-06
6.09961e-06
6.09963e-06
6.09964e-06
6.09963e-06
6.09961e-06
6.09959e-06
6.09959e-06
6.09963e-06
6.09975e-06
6.09995e-06
6.10024e-06
6.10065e-06
6.10107e-06
6.10194e-06
6.1015e-06
6.10629e-06
6.09454e-06
6.12433e-06
6.11919e-06
5.78043e-06
8.23665e-06
2.38703e-06
6.10105e-06
6.10098e-06
6.10019e-06
6.09896e-06
6.09901e-06
6.099e-06
6.09867e-06
6.09824e-06
6.09792e-06
6.09767e-06
6.09752e-06
6.0974e-06
6.09729e-06
6.09718e-06
6.09706e-06
6.09695e-06
6.09688e-06
6.09684e-06
6.09684e-06
6.09688e-06
6.09695e-06
6.09705e-06
6.09718e-06
6.09732e-06
6.09745e-06
6.09756e-06
6.09764e-06
6.0977e-06
6.09773e-06
6.0977e-06
6.09765e-06
6.09767e-06
6.09776e-06
6.09793e-06
6.09821e-06
6.09863e-06
6.09914e-06
6.10065e-06
6.10064e-06
6.10036e-06
6.09998e-06
6.09967e-06
6.09944e-06
6.09926e-06
6.09917e-06
6.09921e-06
6.09929e-06
6.09937e-06
6.09947e-06
6.09955e-06
6.09961e-06
6.09965e-06
6.09967e-06
6.0997e-06
6.09972e-06
6.09975e-06
6.09977e-06
6.09978e-06
6.09979e-06
6.09978e-06
6.09976e-06
6.09973e-06
6.09972e-06
6.09975e-06
6.09984e-06
6.1e-06
6.10024e-06
6.10057e-06
6.10095e-06
6.10156e-06
6.10184e-06
6.10316e-06
6.10451e-06
6.09081e-06
6.18695e-06
5.76724e-06
7.23763e-06
5.06755e-06
6.10087e-06
6.10084e-06
6.10012e-06
6.09894e-06
6.09893e-06
6.0989e-06
6.09858e-06
6.09814e-06
6.0978e-06
6.09754e-06
6.09737e-06
6.09724e-06
6.09712e-06
6.097e-06
6.09688e-06
6.09677e-06
6.0967e-06
6.09666e-06
6.09666e-06
6.09669e-06
6.09675e-06
6.09685e-06
6.09698e-06
6.09712e-06
6.09725e-06
6.09737e-06
6.09748e-06
6.09756e-06
6.09761e-06
6.09763e-06
6.09758e-06
6.09755e-06
6.09759e-06
6.0977e-06
6.09791e-06
6.09824e-06
6.09867e-06
6.1e-06
6.09995e-06
6.1002e-06
6.09985e-06
6.09954e-06
6.09936e-06
6.09926e-06
6.09924e-06
6.09931e-06
6.09942e-06
6.09952e-06
6.09962e-06
6.09971e-06
6.09978e-06
6.09983e-06
6.09987e-06
6.09989e-06
6.09991e-06
6.09993e-06
6.09995e-06
6.09996e-06
6.09996e-06
6.09995e-06
6.09992e-06
6.0999e-06
6.09988e-06
6.09989e-06
6.09995e-06
6.10007e-06
6.10027e-06
6.10055e-06
6.1009e-06
6.10133e-06
6.10197e-06
6.10177e-06
6.10685e-06
6.08816e-06
6.16349e-06
5.93463e-06
6.44499e-06
6.22829e-06
6.10064e-06
6.10067e-06
6.10003e-06
6.09891e-06
6.09883e-06
6.09877e-06
6.09846e-06
6.09802e-06
6.09768e-06
6.09741e-06
6.09723e-06
6.09708e-06
6.09696e-06
6.09683e-06
6.0967e-06
6.0966e-06
6.09653e-06
6.09649e-06
6.09648e-06
6.09651e-06
6.09657e-06
6.09667e-06
6.0968e-06
6.09695e-06
6.0971e-06
6.09723e-06
6.09735e-06
6.09745e-06
6.09753e-06
6.09758e-06
6.09759e-06
6.09754e-06
6.09752e-06
6.09757e-06
6.09771e-06
6.09796e-06
6.0983e-06
6.09944e-06
6.09939e-06
6.10003e-06
6.0997e-06
6.09939e-06
6.09929e-06
6.09927e-06
6.0993e-06
6.09942e-06
6.09954e-06
6.09966e-06
6.09978e-06
6.09988e-06
6.09996e-06
6.10002e-06
6.10007e-06
6.1001e-06
6.10011e-06
6.10012e-06
6.10013e-06
6.10013e-06
6.10013e-06
6.10011e-06
6.10008e-06
6.10006e-06
6.10004e-06
6.10003e-06
6.10007e-06
6.10017e-06
6.10033e-06
6.10056e-06
6.10087e-06
6.10121e-06
6.10188e-06
6.1016e-06
6.10547e-06
6.09529e-06
6.12787e-06
6.06066e-06
6.11857e-06
6.35767e-06
6.10044e-06
6.10052e-06
6.09996e-06
6.09889e-06
6.09875e-06
6.09865e-06
6.09834e-06
6.0979e-06
6.09755e-06
6.09727e-06
6.09708e-06
6.09693e-06
6.0968e-06
6.09667e-06
6.09654e-06
6.09644e-06
6.09638e-06
6.09634e-06
6.09634e-06
6.09637e-06
6.09644e-06
6.09654e-06
6.09667e-06
6.09682e-06
6.09698e-06
6.09712e-06
6.09725e-06
6.09737e-06
6.09747e-06
6.09755e-06
6.09759e-06
6.09758e-06
6.09754e-06
6.09753e-06
6.0976e-06
6.09778e-06
6.09803e-06
6.09899e-06
6.09893e-06
6.09989e-06
6.09956e-06
6.09926e-06
6.09925e-06
6.09929e-06
6.09937e-06
6.09951e-06
6.09965e-06
6.09978e-06
6.09992e-06
6.10003e-06
6.10012e-06
6.1002e-06
6.10026e-06
6.1003e-06
6.10033e-06
6.10034e-06
6.10034e-06
6.10034e-06
6.10033e-06
6.1003e-06
6.10028e-06
6.10025e-06
6.10022e-06
6.10021e-06
6.10023e-06
6.10029e-06
6.10042e-06
6.10061e-06
6.10087e-06
6.10118e-06
6.10171e-06
6.1018e-06
6.10369e-06
6.10113e-06
6.1076e-06
6.11049e-06
6.05431e-06
6.22931e-06
6.10027e-06
6.10041e-06
6.0999e-06
6.09888e-06
6.09868e-06
6.09854e-06
6.09822e-06
6.09779e-06
6.09743e-06
6.09714e-06
6.09695e-06
6.09679e-06
6.09665e-06
6.09651e-06
6.09639e-06
6.09631e-06
6.09626e-06
6.09623e-06
6.09624e-06
6.09627e-06
6.09634e-06
6.09644e-06
6.09658e-06
6.09673e-06
6.09689e-06
6.09703e-06
6.09717e-06
6.0973e-06
6.09742e-06
6.09752e-06
6.09759e-06
6.09762e-06
6.0976e-06
6.09756e-06
6.09757e-06
6.09768e-06
6.09786e-06
6.09866e-06
6.09857e-06
6.09979e-06
6.09946e-06
6.0992e-06
6.09925e-06
6.09932e-06
6.09943e-06
6.09959e-06
6.09975e-06
6.0999e-06
6.10005e-06
6.10018e-06
6.10028e-06
6.10037e-06
6.10045e-06
6.10051e-06
6.10055e-06
6.10057e-06
6.10059e-06
6.10059e-06
6.10058e-06
6.10056e-06
6.10053e-06
6.1005e-06
6.10046e-06
6.10043e-06
6.10043e-06
6.10047e-06
6.10055e-06
6.1007e-06
6.10092e-06
6.10119e-06
6.1016e-06
6.10195e-06
6.10267e-06
6.10351e-06
6.1014e-06
6.11701e-06
6.07337e-06
6.13492e-06
6.10015e-06
6.1003e-06
6.09984e-06
6.09887e-06
6.09862e-06
6.09844e-06
6.0981e-06
6.09768e-06
6.09732e-06
6.09703e-06
6.09682e-06
6.09665e-06
6.0965e-06
6.09637e-06
6.09628e-06
6.09621e-06
6.09617e-06
6.09616e-06
6.09617e-06
6.09621e-06
6.09627e-06
6.09637e-06
6.0965e-06
6.09665e-06
6.0968e-06
6.09695e-06
6.09709e-06
6.09723e-06
6.09736e-06
6.09747e-06
6.09757e-06
6.09763e-06
6.09766e-06
6.09761e-06
6.09758e-06
6.09764e-06
6.09776e-06
6.09842e-06
6.0983e-06
6.09973e-06
6.09941e-06
6.09918e-06
6.09927e-06
6.09937e-06
6.09949e-06
6.09967e-06
6.09985e-06
6.10001e-06
6.10018e-06
6.10032e-06
6.10044e-06
6.10054e-06
6.10063e-06
6.1007e-06
6.10076e-06
6.1008e-06
6.10083e-06
6.10084e-06
6.10085e-06
6.10084e-06
6.10083e-06
6.1008e-06
6.10077e-06
6.10073e-06
6.1007e-06
6.10071e-06
6.10076e-06
6.10086e-06
6.10102e-06
6.10126e-06
6.10157e-06
6.102e-06
6.10232e-06
6.10376e-06
6.10146e-06
6.11119e-06
6.09598e-06
6.10292e-06
6.10004e-06
6.10018e-06
6.09974e-06
6.09882e-06
6.09854e-06
6.09833e-06
6.09799e-06
6.09757e-06
6.09721e-06
6.09693e-06
6.09671e-06
6.09653e-06
6.09638e-06
6.09627e-06
6.09619e-06
6.09614e-06
6.09611e-06
6.0961e-06
6.09611e-06
6.09615e-06
6.09621e-06
6.0963e-06
6.09642e-06
6.09656e-06
6.09671e-06
6.09685e-06
6.09699e-06
6.09714e-06
6.09728e-06
6.09741e-06
6.09753e-06
6.09762e-06
6.09769e-06
6.0977e-06
6.09765e-06
6.09766e-06
6.09772e-06
6.09825e-06
6.09814e-06
6.09966e-06
6.09938e-06
6.0992e-06
6.09931e-06
6.09942e-06
6.09956e-06
6.09975e-06
6.09994e-06
6.10012e-06
6.1003e-06
6.10045e-06
6.10059e-06
6.10071e-06
6.10081e-06
6.10089e-06
6.10096e-06
6.10102e-06
6.10106e-06
6.10109e-06
6.10111e-06
6.10112e-06
6.10112e-06
6.10111e-06
6.10109e-06
6.10106e-06
6.10103e-06
6.10102e-06
6.10104e-06
6.1011e-06
6.10121e-06
6.10139e-06
6.10164e-06
6.10202e-06
6.10231e-06
6.10339e-06
6.10268e-06
6.10631e-06
6.10546e-06
6.1008e-06
6.09991e-06
6.10003e-06
6.09961e-06
6.09875e-06
6.09844e-06
6.09821e-06
6.09785e-06
6.09744e-06
6.09709e-06
6.09682e-06
6.09659e-06
6.09642e-06
6.09628e-06
6.09619e-06
6.09612e-06
6.09607e-06
6.09605e-06
6.09604e-06
6.09605e-06
6.09608e-06
6.09613e-06
6.09621e-06
6.09633e-06
6.09646e-06
6.0966e-06
6.09674e-06
6.09688e-06
6.09703e-06
6.09718e-06
6.09732e-06
6.09746e-06
6.09757e-06
6.09766e-06
6.09772e-06
6.0977e-06
6.09767e-06
6.09769e-06
6.0981e-06
6.09802e-06
6.09956e-06
6.09934e-06
6.09919e-06
6.09933e-06
6.09947e-06
6.09963e-06
6.09984e-06
6.10004e-06
6.10023e-06
6.10042e-06
6.10059e-06
6.10073e-06
6.10087e-06
6.10098e-06
6.10108e-06
6.10116e-06
6.10123e-06
6.10128e-06
6.10133e-06
6.10136e-06
6.10139e-06
6.1014e-06
6.10141e-06
6.1014e-06
6.10138e-06
6.10137e-06
6.10136e-06
6.10137e-06
6.10141e-06
6.10148e-06
6.10161e-06
6.1018e-06
6.1021e-06
6.10241e-06
6.10309e-06
6.10339e-06
6.10442e-06
6.10667e-06
6.10478e-06
6.09976e-06
6.09986e-06
6.09947e-06
6.09865e-06
6.09831e-06
6.09806e-06
6.0977e-06
6.09729e-06
6.09696e-06
6.0967e-06
6.09648e-06
6.09631e-06
6.09619e-06
6.0961e-06
6.09603e-06
6.09599e-06
6.09596e-06
6.09595e-06
6.09596e-06
6.09599e-06
6.09604e-06
6.09611e-06
6.09622e-06
6.09635e-06
6.09648e-06
6.09662e-06
6.09676e-06
6.0969e-06
6.09705e-06
6.09721e-06
6.09736e-06
6.09749e-06
6.09761e-06
6.0977e-06
6.09773e-06
6.09768e-06
6.09766e-06
6.09797e-06
6.09793e-06
6.09945e-06
6.09927e-06
6.09917e-06
6.09934e-06
6.0995e-06
6.09968e-06
6.09991e-06
6.10013e-06
6.10033e-06
6.10054e-06
6.10071e-06
6.10087e-06
6.10102e-06
6.10114e-06
6.10125e-06
6.10135e-06
6.10143e-06
6.1015e-06
6.10156e-06
6.10161e-06
6.10165e-06
6.10168e-06
6.1017e-06
6.1017e-06
6.1017e-06
6.10169e-06
6.10169e-06
6.10171e-06
6.10174e-06
6.1018e-06
6.1019e-06
6.10205e-06
6.10228e-06
6.10257e-06
6.10304e-06
6.10359e-06
6.10418e-06
6.1056e-06
6.10705e-06
6.0996e-06
6.0997e-06
6.09933e-06
6.09853e-06
6.09817e-06
6.09789e-06
6.09753e-06
6.09713e-06
6.0968e-06
6.09655e-06
6.09634e-06
6.09619e-06
6.09607e-06
6.09599e-06
6.09593e-06
6.09589e-06
6.09587e-06
6.09586e-06
6.09586e-06
6.09589e-06
6.09593e-06
6.096e-06
6.0961e-06
6.09622e-06
6.09635e-06
6.09648e-06
6.09662e-06
6.09676e-06
6.09692e-06
6.09708e-06
6.09724e-06
6.09739e-06
6.09753e-06
6.09764e-06
6.09772e-06
6.09771e-06
6.09766e-06
6.09786e-06
6.09787e-06
6.09934e-06
6.09919e-06
6.09914e-06
6.09934e-06
6.09952e-06
6.09973e-06
6.09997e-06
6.10021e-06
6.10043e-06
6.10064e-06
6.10083e-06
6.10101e-06
6.10116e-06
6.1013e-06
6.10142e-06
6.10153e-06
6.10163e-06
6.10171e-06
6.10179e-06
6.10185e-06
6.10191e-06
6.10195e-06
6.10199e-06
6.10201e-06
6.10201e-06
6.10202e-06
6.10203e-06
6.10204e-06
6.10208e-06
6.10214e-06
6.10223e-06
6.10235e-06
6.10254e-06
6.10279e-06
6.10316e-06
6.10364e-06
6.10439e-06
6.10477e-06
6.10741e-06
6.09946e-06
6.09955e-06
6.09919e-06
6.09842e-06
6.09803e-06
6.09772e-06
6.09735e-06
6.09696e-06
6.09664e-06
6.09639e-06
6.0962e-06
6.09605e-06
6.09594e-06
6.09587e-06
6.09581e-06
6.09577e-06
6.09575e-06
6.09574e-06
6.09575e-06
6.09577e-06
6.09581e-06
6.09588e-06
6.09597e-06
6.09608e-06
6.09621e-06
6.09633e-06
6.09646e-06
6.09661e-06
6.09676e-06
6.09692e-06
6.09709e-06
6.09726e-06
6.09741e-06
6.09755e-06
6.09766e-06
6.09771e-06
6.09765e-06
6.09776e-06
6.09781e-06
6.09924e-06
6.09912e-06
6.0991e-06
6.09933e-06
6.09954e-06
6.09976e-06
6.10003e-06
6.10028e-06
6.10051e-06
6.10074e-06
6.10095e-06
6.10113e-06
6.1013e-06
6.10145e-06
6.10159e-06
6.10171e-06
6.10182e-06
6.10192e-06
6.10201e-06
6.10209e-06
6.10216e-06
6.10222e-06
6.10227e-06
6.1023e-06
6.10233e-06
6.10234e-06
6.10236e-06
6.10238e-06
6.10242e-06
6.10248e-06
6.10257e-06
6.10269e-06
6.10285e-06
6.10307e-06
6.1034e-06
6.10375e-06
6.10461e-06
6.10451e-06
6.10713e-06
6.09934e-06
6.09942e-06
6.09906e-06
6.09831e-06
6.09789e-06
6.09755e-06
6.09717e-06
6.09677e-06
6.09646e-06
6.09622e-06
6.09603e-06
6.09589e-06
6.09579e-06
6.09572e-06
6.09567e-06
6.09564e-06
6.09562e-06
6.09561e-06
6.09562e-06
6.09564e-06
6.09567e-06
6.09573e-06
6.09582e-06
6.09593e-06
6.09604e-06
6.09616e-06
6.09629e-06
6.09643e-06
6.09658e-06
6.09675e-06
6.09692e-06
6.0971e-06
6.09727e-06
6.09743e-06
6.09756e-06
6.09766e-06
6.09765e-06
6.09768e-06
6.09778e-06
6.09916e-06
6.09906e-06
6.09907e-06
6.09932e-06
6.09955e-06
6.09979e-06
6.10008e-06
6.10034e-06
6.10059e-06
6.10083e-06
6.10105e-06
6.10125e-06
6.10143e-06
6.10159e-06
6.10174e-06
6.10188e-06
6.10201e-06
6.10212e-06
6.10222e-06
6.10232e-06
6.1024e-06
6.10248e-06
6.10254e-06
6.10259e-06
6.10263e-06
6.10266e-06
6.10269e-06
6.10272e-06
6.10276e-06
6.10282e-06
6.10291e-06
6.10303e-06
6.10319e-06
6.10339e-06
6.10369e-06
6.10396e-06
6.1048e-06
6.10459e-06
6.1069e-06
6.09922e-06
6.09928e-06
6.09893e-06
6.09819e-06
6.09774e-06
6.09738e-06
6.09698e-06
6.09659e-06
6.09628e-06
6.09604e-06
6.09586e-06
6.09572e-06
6.09563e-06
6.09556e-06
6.09551e-06
6.09548e-06
6.09546e-06
6.09546e-06
6.09546e-06
6.09548e-06
6.09551e-06
6.09557e-06
6.09565e-06
6.09575e-06
6.09586e-06
6.09597e-06
6.09609e-06
6.09623e-06