/*--------------------------------*- C++ -*----------------------------------*\
| =========                 |                                                 |
| \\      /  F ield         | OpenFOAM: The Open Source CFD Toolbox           |
|  \\    /   O peration     | Version:  2312                                  |
|   \\  /    A nd           | Website:  www.openfoam.com                      |
|    \\/     M anipulation  |                                                 |
\*---------------------------------------------------------------------------*/
FoamFile
{
    version     2.0;
    format      ascii;
    arch        "LSB;label=32;scalar=64";
    class       volSymmTensorField;
    location    "200";
    object      turbulenceProperties:R;
}
// * * * * * * * * * * * * * * * * * * * * * * * * * * * * * * * * * * * * * //

dimensions      [0 2 -2 0 0 0 0];

internalField   nonuniform List<symmTensor> 
10720
(
(0.0144003 0.00303784 -1.24827e-21 0.0119593 -4.449e-20 0.013326)
(0.0171704 0.00360981 8.53776e-22 0.0135561 5.03686e-20 0.015472)
(0.0209385 0.00419363 1.22541e-20 0.0152314 5.18312e-20 0.0183123)
(0.0260777 0.00494963 6.02367e-20 0.0175152 4.88194e-19 0.0220905)
(0.0324102 0.00566357 -2.51434e-19 0.01994 -1.00559e-18 0.0265075)
(0.0406935 0.00617173 -3.07664e-19 0.0226603 -6.26844e-19 0.0321764)
(0.051412 0.00644226 1.11382e-19 0.0259828 1.06994e-20 0.0393352)
(0.0647979 0.00613274 6.20054e-20 0.0299331 9.80417e-20 0.0481478)
(0.0817063 0.00487827 1.64868e-19 0.034954 -1.33174e-19 0.0593525)
(0.102973 0.0024114 -2.57521e-20 0.0417179 -2.58368e-20 0.0735989)
(0.12986 -0.0017931 2.99731e-18 0.0510881 1.20842e-18 0.0920144)
(0.164527 -0.00831938 -7.21964e-19 0.0644428 -5.54493e-19 0.116367)
(0.209892 -0.0180884 1.47433e-18 0.0836356 -2.21351e-18 0.14906)
(0.270807 -0.0326842 7.24184e-19 0.111673 1.55551e-18 0.19408)
(0.355437 -0.0547415 1.14647e-18 0.153649 -2.03258e-18 0.25815)
(0.476744 -0.0886022 4.64172e-19 0.217977 7.19454e-18 0.352029)
(0.658768 -0.142654 3.63441e-17 0.320709 1.93108e-17 0.496094)
(0.935266 -0.229727 -1.0157e-17 0.486618 1.37218e-17 0.719667)
(1.40381 -0.383757 -4.10005e-18 0.782646 -6.63219e-17 1.106)
(2.13594 -0.639193 2.29471e-18 1.2763 -4.17092e-19 1.72434)
(3.68996 -1.19426 -6.63206e-17 2.36356 -8.71036e-17 3.05551)
(6.11944 -2.12204 1.60511e-16 4.20344 4.69095e-16 5.20111)
(13.4841 -5.0015 -2.46179e-16 10.0033 -8.8151e-16 11.8208)
(26.0647 -10.343 4.40106e-16 21.1179 1.20172e-16 23.7198)
(28.3436 -11.941 -2.43931e-16 25.1541 -1.17043e-17 26.8171)
(26.3274 -11.5844 2.08686e-17 25.2258 -1.26265e-15 25.7635)
(25.14 -11.3744 2.66214e-16 25.4463 -6.40862e-17 25.2508)
(24.9835 -11.5255 1.94358e-16 26.3558 4.09268e-16 25.634)
(25.0093 -11.7174 1.16127e-15 27.341 5.51552e-16 26.1516)
(24.6634 -11.7102 1.07255e-15 27.8775 4.48236e-15 26.2586)
(23.8786 -11.4712 -2.02663e-15 27.8675 -1.72927e-15 25.8757)
(22.7472 -11.0388 -2.20867e-15 27.3657 -3.0051e-15 25.0722)
(21.2567 -10.4041 -9.24608e-16 26.316 -3.96961e-15 23.8091)
(19.4353 -9.58092 -3.0064e-15 24.7218 -5.54787e-15 22.1021)
(17.2631 -8.56025 1.07298e-15 22.5234 2.92196e-15 19.9151)
(14.7965 -7.37091 1.84074e-16 19.7561 2.18509e-15 17.2933)
(11.6197 -5.81122 -4.73952e-17 15.859 3.87548e-18 13.7596)
(8.56054 -4.28714 -1.83659e-15 11.8268 -1.11115e-16 10.1971)
(1.95043 -0.98265 -3.70403e-16 2.94573 -1.7398e-15 2.44703)
(0.0119486 0.00254737 8.70002e-22 0.0105778 -3.08649e-21 0.0113167)
(0.0100617 0.00210255 -4.51852e-21 0.00927294 4.60512e-21 0.00975611)
(0.00802752 0.00162952 -2.33058e-20 0.00776812 -1.62366e-20 0.00794186)
(0.00634095 0.0012265 2.29804e-20 0.00639358 -3.25446e-20 0.00639733)
(0.00482826 0.000869574 -2.63628e-20 0.00500757 -2.48456e-20 0.00493284)
(0.00352528 0.000579961 -1.21805e-19 0.00369136 1.48226e-19 0.00360778)
(0.00251086 0.00037288 3.79324e-20 0.00259141 1.22948e-19 0.00253458)
(0.00193579 0.000258345 -1.66805e-20 0.00190185 -1.596e-19 0.00189586)
(0.00212229 0.000277762 8.94149e-20 0.00192158 1.74677e-21 0.00200461)
(0.0029809 0.000386941 -7.65584e-20 0.00248487 -2.20606e-20 0.00273047)
(0.00455098 0.000627973 7.7279e-20 0.00354397 1.86273e-19 0.00405715)
(0.00698819 0.00110325 1.82262e-19 0.00512829 -8.54375e-20 0.00607719)
(0.0105867 0.00198663 -2.03739e-19 0.00737138 -5.75469e-20 0.00901472)
(0.0157763 0.00352071 1.55335e-20 0.0105245 9.516e-20 0.0132159)
(0.0230695 0.00595675 8.42989e-19 0.0149744 1.76235e-19 0.0191228)
(0.0332066 0.00958684 8.36105e-19 0.0214142 -1.76973e-19 0.0274616)
(0.0475178 0.0148346 3.86007e-19 0.0309772 5.99527e-19 0.039455)
(0.0685246 0.0225937 2.82025e-19 0.045677 6.03249e-19 0.0573875)
(0.100941 0.0346198 3.03805e-19 0.0691291 -1.71618e-19 0.0854282)
(0.153113 0.0542148 5.78575e-19 0.107987 2.54248e-20 0.131127)
(0.241641 0.0879798 -8.76608e-19 0.175632 -5.3167e-18 0.209517)
(0.396152 0.148174 -3.10626e-18 0.297246 -1.00544e-19 0.348165)
(0.687104 0.26414 2.95919e-18 0.53367 5.20074e-18 0.613057)
(1.23566 0.489365 2.12966e-18 0.998652 -5.5653e-19 1.12263)
(2.4126 0.984848 7.51602e-17 2.03615 -1.51529e-17 2.23621)
(4.83365 2.0289 -1.09982e-18 4.25812 -1.15371e-17 4.57058)
(10.6023 4.56438 1.94701e-19 9.73756 7.17607e-18 10.228)
(21.3724 9.41493 2.22934e-18 20.4452 -6.84901e-20 21.0298)
(29.6335 13.3304 3.68074e-19 29.513 4.98468e-21 29.7297)
(32.7069 14.9897 3.65634e-16 33.8687 4.78471e-18 33.4354)
(33.1172 15.4249 -4.33544e-18 35.5751 -2.2351e-19 34.4696)
(32.7013 15.4434 -2.66853e-17 36.3465 3.69991e-17 34.6249)
(31.9755 15.2801 -2.24688e-15 36.6819 -1.8795e-16 34.4124)
(31.0313 14.9788 -4.03135e-15 36.6593 -2.56047e-16 33.9157)
(29.8956 14.5551 3.59187e-15 36.3017 3.91691e-16 33.1592)
(28.6052 14.0304 -2.69798e-17 35.6549 1.36834e-16 32.1829)
(26.9468 13.3048 1.22934e-18 34.4747 -5.28576e-16 30.7589)
(25.1472 12.4842 -1.94858e-16 32.964 2.84481e-16 29.1006)
(20.1628 10.0754 -3.51422e-15 27.4431 1.29774e-16 23.8128)
(0.00226361 -0.000154784 -1.39327e-21 0.00189298 -4.26119e-21 0.0020484)
(0.00222079 -0.000181546 2.48995e-21 0.00191543 5.66083e-21 0.00203477)
(0.00215553 -0.000204075 -1.00703e-22 0.0019378 1.81676e-23 0.00200726)
(0.00205645 -0.000211411 5.07942e-21 0.00192327 7.52819e-22 0.00194523)
(0.0019272 -0.000206525 3.4715e-21 0.00187369 2.98633e-20 0.00185221)
(0.00178758 -0.00019315 2.25135e-20 0.00180713 3.93849e-20 0.00174555)
(0.00163818 -0.000172909 -1.11434e-20 0.00171234 1.79523e-21 0.00162036)
(0.00148226 -0.000149016 -9.32762e-21 0.00159248 -2.45447e-21 0.0014806)
(0.00133506 -0.000125487 -5.23925e-20 0.00146629 -5.78607e-20 0.00134251)
(0.00119755 -0.000104469 -1.75298e-20 0.00133526 -5.78649e-21 0.00120715)
(0.00107161 -8.68876e-05 -1.52821e-19 0.001205 -1.4924e-19 0.00107892)
(0.000984582 -7.76531e-05 -1.89928e-21 0.00111161 2.5995e-20 0.00098678)
(0.000970977 -8.27557e-05 -9.54821e-20 0.00110033 2.83286e-21 0.000964235)
(0.00106641 -0.000111896 8.84139e-20 0.00121228 5.25389e-20 0.00104014)
(0.00139203 -0.000208216 -3.19885e-19 0.00157087 -9.3156e-20 0.0013058)
(0.00224994 -0.00050211 1.47758e-18 0.00240936 3.57401e-19 0.00196028)
(0.00449805 -0.00133963 -2.92056e-18 0.00425398 -2.53545e-18 0.00359327)
(0.00986434 -0.00326048 -5.3282e-18 0.00808471 -2.14675e-18 0.00757483)
(0.0240509 -0.00811595 -1.12719e-17 0.0178698 4.75834e-18 0.0185813)
(0.0596327 -0.0202429 2.27776e-18 0.0423093 -1.88092e-20 0.047183)
(0.170591 -0.0588535 2.10261e-17 0.119915 3.06765e-17 0.138847)
(0.473637 -0.168081 -4.13335e-17 0.338667 -1.22699e-16 0.396804)
(1.38476 -0.511453 -1.68739e-18 1.02977 2.13569e-16 1.19551)
(4.35315 -1.68211 4.96488e-18 3.41323 -8.3199e-17 3.87719)
(8.38419 -3.37797 -0 6.94571 -0 7.69561)
(12.3669 -5.16662 -2.40348e-17 10.8078 5.67515e-16 11.6629)
(15.9156 -6.87146 -6.66337e-17 14.682 4.5125e-17 15.4014)
(18.2485 -8.11479 -1.06396e-16 17.7639 -4.55755e-16 18.1152)
(18.4452 -8.42025 -9.66559e-16 18.9323 -2.54539e-15 18.7846)
(16.6293 -7.76191 3.84894e-16 17.9539 -8.07896e-15 17.3524)
(13.9069 -6.60602 -1.10651e-16 15.7191 5.53024e-15 14.8266)
(11.2499 -5.41448 -3.40041e-16 13.2316 7.24901e-15 12.2149)
(9.1473 -4.44503 -2.204e-15 11.119 4.1859e-15 10.0888)
(7.57811 -3.70767 6.43896e-15 9.44699 1.51609e-14 8.46738)
(6.40124 -3.14761 -4.00182e-16 8.13385 -2.68812e-15 7.23065)
(5.49989 -2.71194 6.23399e-15 7.06898 -3.67135e-15 6.25325)
(4.86437 -2.40623 -2.21888e-16 6.32707 4.87664e-17 5.57525)
(4.33503 -2.12519 3.20183e-15 5.49116 7.20215e-16 4.86068)
(4.44461 -2.2278 5.79745e-15 5.90319 6.59563e-15 5.30368)
(0.0022694 -0.000117092 1.62882e-21 0.00184666 5.30377e-21 0.00203249)
(0.00225791 -7.71531e-05 -1.04375e-21 0.00180135 -2.27567e-20 0.00200543)
(0.00220632 -2.62582e-05 -1.44817e-20 0.00173596 -4.7624e-20 0.00195186)
(0.00211247 3.11938e-05 2.76703e-21 0.00165782 6.89693e-20 0.00187114)
(0.00196858 8.52201e-05 3.2661e-20 0.0015669 -3.07565e-20 0.00176026)
(0.00176994 0.000127994 -9.48834e-21 0.00145792 -5.08166e-20 0.00161206)
(0.00153586 0.000150862 5.05185e-20 0.00133399 -1.11238e-19 0.00143689)
(0.00131273 0.000152961 -8.8092e-20 0.00121126 -1.15966e-20 0.00126715)
(0.00111204 0.000139592 -4.81793e-20 0.00109175 1.08887e-19 0.00110774)
(0.00092035 0.000116108 -1.45762e-20 0.000967507 -5.30653e-21 0.000947261)
(0.000750377 8.74479e-05 -2.27267e-20 0.000838865 -5.2939e-20 0.00079375)
(0.000614294 6.16904e-05 4.57464e-21 0.000716585 -2.73267e-20 0.000660995)
(0.000506342 4.20148e-05 1.8225e-20 0.00060551 4.67965e-20 0.000549368)
(0.000418671 2.81236e-05 -1.54766e-20 0.00050667 -1.04478e-20 0.000455171)
(0.000346458 1.88331e-05 -8.55866e-21 0.000420352 -3.06426e-20 0.000375716)
(0.000286579 1.28155e-05 -2.89263e-20 0.000346341 -8.72088e-21 0.0003091)
(0.000236211 8.97068e-06 -4.70972e-21 0.000282845 -5.32364e-23 0.00025289)
(0.000193674 6.46235e-06 -2.70578e-22 0.000228788 -2.4407e-21 0.000205577)
(0.0001563 4.62699e-06 -2.29987e-21 0.00018129 1.64818e-21 0.000164322)
(0.000121864 3.11765e-06 3.05945e-21 0.000138043 -1.04367e-21 0.000126767)
(8.72031e-05 1.74539e-06 -1.1599e-20 9.57811e-05 8.53121e-21 8.96393e-05)
(5.23822e-05 6.66368e-07 -1.02233e-21 5.54984e-05 2.11431e-22 5.32002e-05)
(1.84494e-05 8.3678e-08 -4.62235e-24 1.88285e-05 -1.26933e-22 1.85384e-05)
(3.01412e-06 2.25591e-09 1.63861e-23 3.02385e-06 8.85538e-25 3.01602e-06)
(8.47011e-06 1.93827e-08 -1.0986e-22 8.54174e-06 9.40679e-24 8.48067e-06)
(0.000862284 0.000197109 -8.82667e-19 0.00144911 1.923e-19 0.00092244)
(0.00459984 0.00136048 -8.05006e-20 0.00795513 -1.20653e-19 0.00482451)
(0.037732 0.0121542 -6.4928e-21 0.0628566 -3.3971e-19 0.0388172)
(0.129198 0.0463883 -5.00963e-20 0.205769 -6.80721e-22 0.13168)
(0.257887 0.103471 2.72506e-18 0.388202 2.42054e-18 0.262765)
(0.393061 0.17166 1.93286e-19 0.556636 -1.19423e-18 0.403727)
(0.514897 0.236345 4.86147e-18 0.692391 -1.79829e-17 0.535683)
(0.616903 0.290533 2.46152e-15 0.802264 1.76818e-16 0.651025)
(0.703814 0.336104 2.3076e-15 0.900926 1.21676e-16 0.753196)
(0.781356 0.376548 -2.14277e-15 0.998085 -2.51938e-16 0.847724)
(0.859542 0.416776 2.07804e-15 1.10211 2.72629e-16 0.943051)
(0.937143 0.457494 -3.68407e-15 1.2181 -5.43776e-16 1.04341)
(1.13785 0.554123 -3.42889e-15 1.46005 -7.49432e-16 1.2586)
(1.58207 0.779477 -3.42625e-15 1.98805 -1.04005e-16 1.80073)
(0.00151542 -0.000119937 -6.01536e-22 0.00124821 -2.15146e-21 0.00139694)
(0.00147552 -0.000143075 -1.29775e-20 0.00126367 -3.0515e-20 0.00138791)
(0.00140692 -0.000159302 9.55696e-21 0.0012678 2.27462e-20 0.00135874)
(0.00131742 -0.000164617 1.31983e-20 0.00125905 2.49368e-20 0.00131414)
(0.00122642 -0.00015992 2.39189e-20 0.00124806 3.45281e-20 0.00126669)
(0.00113265 -0.000144627 -7.35425e-20 0.00122995 -1.28518e-19 0.00121432)
(0.00104432 -0.000120202 5.16313e-20 0.00120489 1.03453e-19 0.00116159)
(0.000970311 -9.02847e-05 6.89188e-20 0.00117709 6.1501e-20 0.00111395)
(0.000912143 -5.72163e-05 -3.98027e-21 0.00114762 8.34013e-21 0.001073)
(0.000872217 -2.42897e-05 4.21342e-20 0.00111921 7.50098e-20 0.00104142)
(0.000847421 6.32934e-06 -9.16283e-20 0.00109135 -4.34152e-21 0.0010169)
(0.000838313 3.32084e-05 1.25234e-19 0.00106961 1.38872e-19 0.00100237)
(0.000842794 5.5674e-05 5.92979e-20 0.00105682 2.43646e-20 0.000997874)
(0.000859544 7.48396e-05 3.00105e-20 0.00105599 -2.86575e-20 0.00100486)
(0.000873837 8.88093e-05 8.59931e-20 0.00105021 8.50105e-20 0.00100635)
(0.000861079 9.30407e-05 -2.04228e-19 0.00101027 -2.08406e-19 0.000973994)
(0.00077177 7.8027e-05 4.00038e-20 0.000876572 5.85336e-20 0.000851)
(0.000677355 6.23034e-05 2.5939e-19 0.000749918 7.60062e-20 0.0007315)
(8.59838e-05 9.96387e-07 1.25883e-21 8.70221e-05 9.27738e-22 8.67381e-05)
(0.00352778 0.00154251 -6.27698e-19 0.00502023 -4.33295e-20 0.00456731)
(0.00145172 0.000390556 2.01203e-19 0.00181313 -4.44797e-19 0.0016898)
(0.00239071 0.00110063 1.46581e-19 0.0033948 1.26265e-18 0.00300366)
(0.000429752 0.000185756 2.02722e-18 0.000663704 -4.21819e-19 0.000542445)
(0.013641 -0.00531243 -7.34233e-18 0.011055 -3.06932e-18 0.0119017)
(0.121898 -0.0487046 2.39641e-19 0.101369 5.96241e-19 0.109023)
(0.410602 -0.169765 -5.33362e-17 0.357422 1.53534e-17 0.378199)
(1.02131 -0.435791 1.87902e-17 0.931834 7.64411e-18 0.967963)
(2.27552 -0.996535 -2.38175e-17 2.16733 -1.94198e-18 2.21087)
(4.46961 -2.00043 -5.98288e-16 4.4286 6.08392e-16 4.43884)
(7.36163 -3.35971 -1.04171e-15 7.58214 3.24697e-17 7.46639)
(9.95942 -4.62973 3.76769e-15 10.6743 -1.10853e-15 10.323)
(11.1903 -5.29088 3.11707e-15 12.4876 1.68933e-15 11.8589)
(10.8497 -5.20323 -1.43742e-16 12.5768 4.1986e-15 11.7366)
(9.63872 -4.67155 6.54032e-15 11.5405 -4.93776e-15 10.6032)
(8.27248 -4.03845 5.09117e-15 10.1554 -2.89357e-15 9.21704)
(7.0429 -3.45067 -9.47976e-15 8.76799 -3.4822e-15 7.90139)
(6.08813 -2.99149 -2.82019e-17 7.65487 -1.68252e-15 6.87275)
(5.18016 -2.51145 6.23547e-15 6.24641 -1.59281e-15 5.69022)
(5.58101 -2.76459 -1.3182e-14 7.21265 4.23609e-15 6.42349)
(0.00154977 -9.05719e-05 -2.84384e-21 0.0012366 -6.85127e-21 0.00140697)
(0.00156323 -5.87874e-05 -2.35217e-21 0.00122169 -2.49015e-21 0.00140351)
(0.00156857 -2.00166e-05 2.13605e-20 0.00121068 3.70622e-20 0.00139812)
(0.00154138 2.11274e-05 -1.28934e-20 0.00119054 -6.56004e-22 0.00137131)
(0.00148203 6.14948e-05 3.04067e-21 0.00116332 1.5844e-20 0.00132576)
(0.00137942 9.46164e-05 -5.00423e-21 0.00111888 5.07713e-20 0.00125025)
(0.00123993 0.000115203 -1.11839e-20 0.00105519 4.7487e-20 0.00114737)
(0.0010847 0.000121374 1.3393e-19 0.000977992 9.58958e-20 0.00103178)
(0.000941685 0.000117364 2.02034e-20 0.000905156 -2.60944e-20 0.000924238)
(0.000801299 0.000104021 7.09148e-20 0.000822889 9.23303e-21 0.000812697)
(0.000662545 8.41901e-05 -5.56643e-20 0.000722138 -3.69673e-20 0.000693117)
(0.000537558 6.36179e-05 -4.00757e-20 0.00061512 6.14371e-20 0.0005778)
(0.000431545 4.55838e-05 4.3603e-20 0.000513297 -2.20145e-20 0.000474789)
(0.000343956 3.10041e-05 3.55406e-20 0.000421713 -1.30812e-22 0.00038619)
(0.000274021 1.99691e-05 -2.59187e-20 0.000343735 2.48375e-20 0.000313065)
(0.000219083 1.19323e-05 -1.8631e-20 0.000279293 4.47996e-20 0.000254082)
(0.000177235 6.31184e-06 4.54524e-20 0.000228185 -2.77275e-20 0.000208125)
(0.000146099 2.41118e-06 4.22689e-20 0.000188864 -7.72624e-21 0.000173287)
(0.00012386 -3.45664e-07 1.66124e-20 0.000159922 -1.48326e-21 0.000147935)
(0.000108228 -2.44802e-06 -5.64341e-21 0.000138811 2.07873e-20 0.000129755)
(9.7811e-05 -4.18963e-06 7.99394e-20 0.000123939 9.7296e-21 0.000117249)
(9.1559e-05 -5.86699e-06 3.18348e-21 0.000113752 -1.47682e-20 0.000109215)
(8.90136e-05 -7.68705e-06 -2.58799e-22 0.000107194 -9.62894e-22 0.000104946)
(8.92037e-05 -9.45301e-06 -1.803e-21 0.000101787 -1.05159e-20 0.000102938)
(9.2424e-05 -1.05766e-05 -1.49483e-21 9.77717e-05 7.881e-21 0.00010355)
(9.53441e-05 -1.00374e-05 1.2918e-19 9.33477e-05 -6.65625e-21 0.000103269)
(0.000104426 -9.4533e-06 3.18579e-22 9.58941e-05 -8.2644e-24 0.00011015)
(6.23864e-05 -2.7232e-06 -4.67045e-21 5.78093e-05 2.58265e-22 6.37042e-05)
(0.000483458 -6.69526e-05 -1.05969e-21 0.000300046 -1.5692e-22 0.000511927)
(0.00329197 -0.00027156 -2.54948e-18 0.00170118 -9.50192e-20 0.00344146)
(0.00939994 0.000443296 1.77492e-17 0.00471337 7.98894e-19 0.00971988)
(0.018926 0.0047547 -2.52626e-19 0.0113824 -1.32932e-20 0.0195155)
(0.0389407 0.0156006 -2.74494e-16 0.0320253 -1.25548e-17 0.0403028)
(0.076583 0.034562 -3.07587e-19 0.0754258 9.62746e-18 0.0798845)
(0.131059 0.0612552 -1.16665e-18 0.14068 7.91379e-18 0.138175)
(0.197819 0.0934816 3.55163e-17 0.220119 -1.03025e-16 0.209709)
(0.268871 0.128189 -1.73468e-16 0.307128 7.13031e-16 0.28806)
(0.334881 0.15469 2.19142e-15 0.35493 8.17302e-16 0.343653)
(0.551066 0.262454 4.49384e-15 0.61802 1.76412e-15 0.596617)
(0.00128589 -9.72628e-05 -2.52612e-21 0.0010579 -4.7019e-21 0.00116661)
(0.00127058 -0.00011534 -5.48879e-21 0.00107842 -8.80181e-21 0.00116866)
(0.00124077 -0.000130972 1.05036e-20 0.00109752 1.59334e-20 0.00116168)
(0.00120428 -0.000141133 1.47296e-20 0.00111549 1.43777e-20 0.00115095)
(0.00115658 -0.000144369 1.66883e-21 0.00112422 -7.17889e-22 0.00112977)
(0.00109915 -0.00014079 -5.63232e-21 0.0011233 1.38813e-20 0.00109861)
(0.00103724 -0.000131125 1.07667e-19 0.00111217 1.0785e-19 0.00106008)
(0.000970783 -0.000116498 -1.00865e-19 0.00108712 -1.33814e-19 0.00101231)
(0.00090294 -9.86503e-05 2.81565e-20 0.00105032 7.28003e-21 0.000957813)
(0.00083521 -7.9601e-05 1.33332e-19 0.00100203 9.87486e-20 0.000897829)
(0.000768403 -6.08136e-05 1.04914e-19 0.00094408 1.06498e-19 0.000833575)
(0.000702636 -4.34764e-05 1.13788e-19 0.000878063 3.27033e-20 0.000766122)
(0.000637564 -2.83816e-05 -1.26886e-19 0.000805432 -9.61897e-20 0.000696191)
(0.000573254 -1.58418e-05 -7.95891e-20 0.000728361 -7.97962e-20 0.000625054)
(0.000509661 -5.84529e-06 8.74436e-21 0.000648435 -2.67662e-20 0.000553338)
(0.000443582 2.81241e-06 -1.94922e-19 0.000563208 1.37955e-20 0.000478848)
(0.000378702 1.01236e-05 -5.30067e-20 0.000476356 -6.71873e-20 0.000405435)
(0.000321109 1.5611e-05 -2.83949e-19 0.000395527 -2.20941e-19 0.000340029)
(0.000250233 1.53136e-05 2.12117e-20 0.000292422 -2.85331e-20 0.000260597)
(0.000153015 7.02015e-06 3.27993e-21 0.000165318 -7.50882e-21 0.000156217)
(4.70171e-07 6.32683e-11 -2.32773e-25 4.70248e-07 -2.51247e-27 4.70194e-07)
(0.000299576 2.34548e-05 1.07467e-20 0.000321561 2.36671e-21 0.000307386)
(0.000228267 1.20697e-05 -2.31979e-20 0.000236819 -4.71856e-21 0.000231538)
(0.00331746 0.00146788 -8.7917e-19 0.00400889 9.49056e-19 0.0035693)
(0.013718 0.00637284 1.04752e-18 0.0151274 7.0833e-20 0.0140263)
(0.0284207 0.0125529 9.7831e-18 0.0280483 5.21857e-18 0.0274118)
(0.0435648 0.0179599 -1.78378e-18 0.038234 7.41468e-19 0.03957)
(0.000855221 0.000262453 8.29231e-20 0.000606574 5.25749e-21 0.000697922)
(0.0170972 -0.00536412 2.76492e-17 0.0109186 1.6066e-18 0.0134309)
(0.190431 -0.0811321 -8.60655e-18 0.173304 1.03896e-16 0.180256)
(0.880489 -0.395185 -4.80734e-16 0.877936 -4.72467e-16 0.876231)
(2.45519 -1.1315 1.8341e-15 2.58444 -1.72853e-15 2.51601)
(4.66985 -2.1941 2.06364e-15 5.13814 -2.01043e-16 4.90239)
(6.53966 -3.12062 -3.99816e-16 7.48519 -6.98571e-15 7.01666)
(7.34642 -3.54716 -5.66467e-15 8.69574 -1.71334e-15 8.0296)
(7.24161 -3.52075 6.84736e-16 8.76578 3.58824e-15 8.00784)
(6.79537 -3.31859 -9.7805e-15 8.347 1.45432e-15 7.57814)
(6.10015 -2.94424 -6.90745e-15 7.237 8.59016e-16 6.65384)
(6.38669 -3.13547 8.09129e-15 7.9467 -4.96465e-15 7.20869)
(0.00128687 -7.4686e-05 -1.36186e-21 0.00103064 -1.36589e-21 0.00115521)
(0.00127638 -5.08276e-05 4.85417e-21 0.00100286 2.23066e-20 0.00113655)
(0.00124987 -2.13362e-05 1.44576e-20 0.0009688 3.19771e-20 0.00110784)
(0.00121046 9.79342e-06 1.56845e-20 0.000936 -7.67441e-21 0.00107251)
(0.00115353 4.01713e-05 -3.11486e-20 0.000902368 -2.65955e-20 0.00102802)
(0.00107407 6.61808e-05 -3.51011e-21 0.000863646 -3.81414e-20 0.000969014)
(0.000978792 8.44565e-05 -4.79779e-20 0.000821306 -4.88097e-20 0.000899908)
(0.00087729 9.32848e-05 -7.50564e-20 0.00077626 -2.73243e-21 0.000826803)
(0.000773617 9.3371e-05 -2.13576e-20 0.000726801 -1.19237e-20 0.000750665)
(0.000666967 8.55914e-05 2.34275e-20 0.000667299 -1.63674e-20 0.000667777)
(0.000564175 7.25407e-05 2.30323e-20 0.000598897 5.2852e-20 0.000582091)
(0.00047357 5.79419e-05 4.36388e-20 0.00052927 -1.69399e-20 0.000501699)
(0.000397704 4.42512e-05 -3.72577e-20 0.000463656 -4.23855e-20 0.000430523)
(0.000335355 3.25567e-05 -6.92043e-21 0.000404081 1.57716e-20 0.000369068)
(0.000284836 2.32549e-05 3.40068e-20 0.000351631 -7.44395e-21 0.000317071)
(0.000243913 1.61811e-05 7.43427e-20 0.000306252 -5.36761e-21 0.000273463)
(0.000211133 1.10154e-05 -4.67447e-20 0.000268055 -1.32037e-20 0.000237561)
(0.000184948 7.30753e-06 -1.40905e-20 0.000236429 -2.05557e-20 0.000208315)
(0.000164218 4.6161e-06 -6.567e-21 0.000210761 3.64318e-21 0.000184839)
(0.000147495 2.54412e-06 6.90523e-20 0.000189689 -2.7186e-20 0.000165753)
(0.000134022 8.35488e-07 1.24065e-20 0.000172446 -1.8127e-20 0.000150249)
(0.000122814 -7.27293e-07 -6.71239e-20 0.000157839 1.96334e-20 0.000137234)
(0.000112926 -2.27269e-06 -2.78822e-21 0.000144586 9.83576e-21 0.000125567)
(0.000102675 -3.70828e-06 -1.0714e-21 0.000130459 -6.56212e-21 0.000113317)
(9.22529e-05 -4.6076e-06 9.9382e-22 0.000115886 -8.14264e-23 0.000100666)
(8.36871e-05 -4.88913e-06 -5.12895e-20 0.000103828 -1.03716e-20 9.0011e-05)
(7.72826e-05 -4.83276e-06 -8.94589e-22 9.47257e-05 1.58949e-22 8.18751e-05)
(7.2744e-05 -4.67125e-06 1.10779e-20 8.82646e-05 2.82713e-22 7.59795e-05)
(6.68755e-05 -4.2726e-06 -3.92723e-22 8.01855e-05 -9.36449e-24 6.89217e-05)
(5.94036e-05 -3.83497e-06 2.5294e-22 7.05447e-05 3.34697e-22 6.05386e-05)
(4.41016e-05 -2.69984e-06 -2.69028e-20 5.11383e-05 -9.47105e-22 4.446e-05)
(2.83107e-05 -1.64925e-06 -6.28076e-22 3.19942e-05 -3.90299e-23 2.82522e-05)
(0.000201382 -5.50535e-05 3.90006e-21 0.00030529 -6.8189e-20 0.000185109)
(0.000395786 -4.31811e-05 1.72042e-17 0.000504826 1.55783e-18 0.000286433)
(0.00169898 0.000611782 1.09778e-18 0.00132317 1.22743e-19 0.00136069)
(0.00865859 0.00337322 -1.88467e-16 0.00682378 -3.5629e-17 0.00783015)
(0.0270856 0.0113093 1.25574e-15 0.023445 1.84334e-16 0.0259859)
(0.0712619 0.0281496 4.84311e-17 0.0572257 -1.77748e-16 0.0649837)
(0.231361 0.105135 2.7458e-16 0.2322 -1.52643e-15 0.238996)
(0.000962604 -7.40683e-05 -3.02589e-21 0.000792626 -4.4811e-21 0.000879309)
(0.000946498 -8.75372e-05 -5.53366e-21 0.000805088 -7.47516e-21 0.000878246)
(0.000920833 -9.87882e-05 1.88132e-20 0.000816829 2.40895e-20 0.000871552)
(0.000887248 -0.000105628 -8.02231e-20 0.000825446 -1.09536e-19 0.00085982)
(0.000845994 -0.000107251 1.99099e-20 0.000828379 3.11104e-20 0.000841444)
(0.000797878 -0.000103433 4.34141e-20 0.000824758 4.51049e-20 0.000816303)
(0.000746275 -9.44419e-05 -3.70681e-20 0.000813743 -6.06444e-20 0.000785979)
(0.000693136 -8.11017e-05 -2.49026e-20 0.000794463 4.28761e-21 0.000750821)
(0.00064048 -6.45389e-05 -1.49276e-19 0.000767285 -1.41087e-19 0.000711955)
(0.000591227 -4.63408e-05 -2.0939e-20 0.000734015 -5.63767e-20 0.00067189)
(0.000546661 -2.78044e-05 4.1009e-21 0.000696115 -1.32415e-20 0.000631854)
(0.000507975 -1.01225e-05 -7.49049e-20 0.000655649 -9.50773e-20 0.000593479)
(0.000476146 5.74444e-06 3.59416e-20 0.000615136 4.30846e-20 0.00055846)
(0.000451399 1.92224e-05 -1.47654e-19 0.000576674 -7.6701e-20 0.000527842)
(0.00043356 3.02413e-05 3.22384e-20 0.000541825 1.79569e-20 0.000502324)
(0.000420819 3.84152e-05 1.4122e-19 0.000510833 1.18141e-19 0.00048074)
(0.000407216 4.34871e-05 -1.94258e-19 0.000479235 -5.51792e-20 0.000457575)
(0.0003889 4.57766e-05 -3.58642e-20 0.00044341 1.61135e-19 0.000429396)
(0.000367354 4.6324e-05 -1.22766e-20 0.000406093 -2.08003e-20 0.000398599)
(0.000333297 4.27532e-05 -1.42547e-19 0.00035687 -2.29833e-20 0.000354739)
(0.0002324 2.28856e-05 8.41742e-20 0.00023999 5.16729e-20 0.000240549)
(8.44024e-05 3.1375e-06 3.76655e-22 8.50084e-05 -5.47373e-22 8.5164e-05)
(1.27081e-05 6.63338e-08 1.72205e-22 1.2715e-05 4.80454e-23 1.27184e-05)
(2.71391e-06 2.68064e-09 4.51245e-24 2.71389e-06 1.50834e-24 2.71409e-06)
(0 0 -0 0 -0 0)
(0 0 0 0 -0 0)
(0 0 0 0 -0 0)
(0.000214233 1.40581e-05 -1.07444e-21 0.000209356 -1.61599e-21 0.000211957)
(0.0129609 0.00527777 -5.68521e-18 0.0109341 -2.92162e-19 0.0119674)
(0.00254467 0.000944659 1.09656e-19 0.0021147 6.21952e-21 0.00232768)
(0.0129346 0.00491495 -1.43686e-18 0.00993488 5.59197e-19 0.0114006)
(0.0433619 0.0129157 -1.76288e-16 0.0259945 -1.256e-16 0.0344152)
(0.169243 -0.0652456 -7.07982e-17 0.132639 -2.17798e-16 0.149928)
(1.04034 -0.474453 -4.91302e-15 1.07118 4.83856e-16 1.05321)
(2.76669 -1.30481 7.1852e-16 3.07446 2.36137e-15 2.91786)
(4.60183 -2.20433 -8.16354e-19 5.32819 1.2544e-19 4.96363)
(5.79469 -2.8023 -2.93336e-16 6.89337 4.44726e-15 6.34953)
(6.18837 -2.96911 1.42816e-16 7.21291 1.92828e-16 6.68548)
(6.75485 -3.29649 -1.30608e-14 8.21794 2.7204e-15 7.54144)
(0.000971814 -5.768e-05 5.35218e-21 0.000778783 3.39434e-21 0.000877074)
(0.000973564 -4.01216e-05 -1.50809e-20 0.000765193 -2.42128e-20 0.000870372)
(0.000965593 -1.85732e-05 -8.40596e-21 0.000748603 1.42135e-20 0.000858009)
(0.000944945 4.68518e-06 4.02964e-20 0.000730077 2.92526e-20 0.000837975)
(0.000909837 2.78889e-05 -1.49419e-20 0.000709524 -7.72986e-20 0.000810004)
(0.000856495 4.84578e-05 -2.68657e-20 0.000684092 1.86034e-20 0.000770288)
(0.000790406 6.39426e-05 6.7798e-20 0.000655868 5.27356e-20 0.000722952)
(0.000718657 7.28686e-05 -2.26124e-20 0.000626207 -6.13508e-20 0.000672368)
(0.000643402 7.52688e-05 -5.41956e-20 0.000593187 -2.43898e-20 0.000618395)
(0.000564848 7.14804e-05 -4.03333e-20 0.000552955 1.57823e-20 0.000559091)
(0.000488174 6.31677e-05 4.47022e-20 0.000506224 1.60155e-21 0.00049737)
(0.000417691 5.26914e-05 -2.56699e-20 0.000455996 -2.58656e-20 0.000437002)
(0.000355192 4.19345e-05 -3.26628e-20 0.000405072 2.59958e-20 0.000380322)
(0.000300692 3.20213e-05 3.16195e-20 0.000355391 1.35212e-20 0.000328312)
(0.000253919 2.35658e-05 -4.64817e-20 0.000308661 7.80312e-21 0.00028168)
(0.000214261 1.6722e-05 -1.23348e-20 0.00026611 -3.40865e-20 0.000240736)
(0.00018112 1.1406e-05 1.37647e-20 0.000228556 1.76193e-20 0.000205566)
(0.00015383 7.36394e-06 -5.07318e-20 0.000196358 2.42381e-21 0.000176003)
(0.000131741 4.29924e-06 2.01423e-20 0.000169492 -3.80188e-22 0.000151695)
(0.000113979 1.90924e-06 -7.68254e-20 0.000147342 5.31169e-21 0.000131896)
(9.98439e-05 -4.17223e-08 -1.05176e-20 0.00012927 2.86954e-21 0.000115922)
(8.85355e-05 -1.74529e-06 6.15808e-20 0.00011433 5.59513e-21 0.000102906)
(7.92633e-05 -3.3108e-06 5.89938e-20 0.00010145 -1.34612e-20 9.19165e-05)
(7.07265e-05 -4.67863e-06 -4.92243e-20 8.884e-05 3.65557e-21 8.14576e-05)
(6.22339e-05 -5.54871e-06 -6.83468e-22 7.58233e-05 4.06804e-22 7.08362e-05)
(5.44615e-05 -5.82298e-06 -4.71491e-20 6.37373e-05 1.4254e-20 6.1015e-05)
(4.84657e-05 -5.73247e-06 -9.21018e-22 5.39188e-05 1.01019e-23 5.32849e-05)
(4.46591e-05 -5.40474e-06 -7.33419e-24 4.67368e-05 -3.83827e-22 4.8028e-05)
(4.36632e-05 -5.07416e-06 -5.27644e-23 4.28243e-05 1.07311e-23 4.58915e-05)
(4.13495e-05 -4.09882e-06 1.61442e-20 3.84272e-05 1.43454e-22 4.24594e-05)
(5.20569e-05 -5.54116e-06 7.61323e-23 4.52785e-05 -2.04527e-22 5.26512e-05)
(1.15492e-05 -3.01213e-07 1.64247e-24 1.10658e-05 -1.74952e-25 1.15318e-05)
(8.62514e-05 -1.26956e-05 -4.50937e-19 6.28896e-05 -3.39985e-20 8.3373e-05)
(0.000448122 -0.000106064 -3.92122e-18 0.000238296 -3.34605e-19 0.000404702)
(0.000124125 -2.37851e-05 8.6784e-21 7.34791e-05 8.79081e-22 0.000109348)
(0.000439824 -8.77845e-05 -8.11364e-18 0.000206622 -1.31591e-19 0.000349178)
(0.00126776 -0.000130498 2.82496e-18 0.000505137 -2.10535e-17 0.000930438)
(0.00308791 0.000218752 1.48032e-18 0.00121374 2.92221e-19 0.00211764)
(0.0495174 0.0199258 -5.11239e-16 0.0404078 7.13585e-17 0.0470459)
(0.000789423 -6.07668e-05 5.97148e-21 0.000650333 6.97873e-21 0.000719255)
(0.0007818 -7.16447e-05 -4.50235e-21 0.000664016 -5.04575e-21 0.000722345)
(0.000767434 -8.12149e-05 1.45537e-23 0.000678022 -3.77772e-22 0.000721827)
(0.000748759 -8.78464e-05 -2.54062e-21 0.000691619 2.3708e-21 0.000719126)
(0.000724646 -9.07465e-05 5.75003e-20 0.000701731 6.06541e-20 0.000711913)
(0.000695592 -8.97745e-05 -3.63911e-20 0.000708125 -4.66575e-20 0.000700183)
(0.000663619 -8.49597e-05 -2.7367e-21 0.000709629 1.19865e-20 0.000684587)
(0.000629243 -7.67108e-05 1.24349e-19 0.000704604 1.19613e-19 0.000664449)
(0.000593523 -6.57316e-05 -2.92903e-20 0.000692845 2.12894e-21 0.000640146)
(0.000557704 -5.30802e-05 -1.40767e-19 0.000674329 -9.40859e-20 0.000612391)
(0.000522163 -3.97018e-05 4.36879e-20 0.000649198 3.66094e-20 0.000581387)
(0.000487426 -2.65009e-05 -1.16341e-19 0.000618353 -3.6811e-20 0.000547859)
(0.000453867 -1.42958e-05 -4.27559e-20 0.000582962 -1.59502e-20 0.00051262)
(0.000421543 -3.58556e-06 -7.31309e-20 0.000544212 4.0936e-20 0.000476277)
(0.000390462 5.33684e-06 6.35049e-21 0.000503339 3.5212e-21 0.000439508)
(0.000359388 1.22486e-05 5.32923e-20 0.000459971 1.19433e-20 0.000401554)
(0.000325915 1.75743e-05 7.35458e-20 0.000411929 1.08435e-19 0.000360624)
(0.000291777 2.13036e-05 2.74851e-19 0.000362049 7.58827e-20 0.000318949)
(0.000259757 2.36319e-05 -1.09469e-19 0.000314396 -5.19128e-21 0.000279863)
(0.000232099 2.48661e-05 1.00601e-19 0.000272422 4.4343e-20 0.000246048)
(0.000209959 2.53765e-05 1.50995e-20 0.00023756 -4.41478e-20 0.000218692)
(0.000180049 2.17856e-05 -1.3688e-20 0.000194038 2.49088e-20 0.000183736)
(0.000132757 1.27689e-05 -4.78572e-20 0.00013574 -2.73869e-20 0.000132924)
(3.52818e-05 9.14814e-07 1.19825e-22 3.51493e-05 -1.41682e-22 3.51593e-05)
(7.24893e-06 3.73789e-08 9.57349e-24 7.23152e-06 -1.98194e-24 7.23879e-06)
(3.92717e-06 1.07369e-08 1.5264e-23 3.91971e-06 -4.74947e-24 3.92308e-06)
(2.24509e-06 3.48298e-09 -1.73519e-24 2.24232e-06 -6.2211e-25 2.24359e-06)
(3.75604e-07 9.43265e-11 -3.97801e-26 3.75531e-07 -2.00733e-27 3.75565e-07)
(0 0 0 0 0 0)
(0.000153054 1.18047e-05 -3.61753e-21 0.000145108 -1.46055e-20 0.000148965)
(0.00279601 0.0010249 -2.84602e-18 0.00213472 1.17929e-18 0.00245625)