/*--------------------------------*- C++ -*----------------------------------*\
| =========                 |                                                 |
| \\      /  F ield         | OpenFOAM: The Open Source CFD Toolbox           |
|  \\    /   O peration     | Version:  2312                                  |
|   \\  /    A nd           | Website:  www.openfoam.com                      |
|    \\/     M anipulation  |                                                 |
\*---------------------------------------------------------------------------*/
FoamFile
{
    version     2.0;
    format      ascii;
    arch        "LSB;label=32;scalar=64";
    class       volScalarField;
    location    "200";
    object      turbulenceProperties:L;
}
// * * * * * * * * * * * * * * * * * * * * * * * * * * * * * * * * * * * * * //

dimensions      [0 1 0 0 0 0 0];

internalField   nonuniform List<scalar> 
10720
(
0.00179248
0.00171615
0.00164917
0.00158498
0.00154657
0.00152585
0.00152707
0.0015548
0.00161108
0.00169876
0.00182332
0.00199094
0.00220787
0.00248855
0.00285491
0.00333873
0.0039983
0.00490033
0.00624952
0.00815181
0.0115878
0.0166248
0.0284618
0.0461541
0.0544633
0.0563357
0.0573762
0.0588803
0.0602967
0.061186
0.0616098
0.0618124
0.0619572
0.0621149
0.06235
0.0627043
0.0635621
0.0643699
0.0640511
0.00188674
0.00198566
0.00214604
0.00233956
0.00261173
0.00300091
0.00352884
0.00404555
0.00396319
0.003469
0.00296258
0.0025941
0.00237283
0.00228417
0.00231273
0.00244683
0.00268304
0.00302981
0.00351068
0.00416508
0.00506875
0.00631241
0.00811518
0.0106759
0.0147205
0.0206763
0.0305254
0.0433782
0.0513058
0.0542978
0.0551824
0.0555206
0.0557299
0.0558738
0.055982
0.0560844
0.0562086
0.0564348
0.0565455
0.00387045
0.00388102
0.0039034
0.00396097
0.00405536
0.00417283
0.00432546
0.00451883
0.00473808
0.00498721
0.00526488
0.00549111
0.00553954
0.0053643
0.00501969
0.00479644
0.00498304
0.00555283
0.00654254
0.00778025
0.0100127
0.0130465
0.0184163
0.0296457
0.0409894
0.0535847
0.0683132
0.0844878
0.100328
0.114723
0.128333
0.141989
0.154679
0.165448
0.17416
0.180881
0.185066
0.186043
0.17979
0.00388834
0.00391549
0.00397217
0.00406092
0.00419237
0.00438662
0.00465173
0.00495948
0.00530549
0.00573186
0.00624942
0.00683295
0.00748039
0.00820578
0.00902355
0.00994776
0.0110131
0.0122622
0.0138352
0.0160429
0.0198743
0.0282442
0.0606179
0.235187
0.108724
0.0106422
0.0215185
0.0581039
0.107378
0.156192
0.19463
0.215811
0.22226
0.220951
0.216947
0.212345
0.207351
0.198251
0.175116
0.00473756
0.004757
0.00481218
0.00490005
0.00499735
0.00511127
0.00523481
0.00535408
0.00546369
0.00555397
0.00562725
0.00567253
0.00568687
0.00566786
0.0056586
0.00573319
0.0060984
0.00657786
0.0276408
0.0054635
0.00524811
0.00772308
0.0160658
0.0186744
0.0260445
0.033965
0.0439489
0.0580043
0.0762417
0.0970587
0.118185
0.137944
0.156845
0.176055
0.195448
0.214202
0.231221
0.246671
0.242418
0.0047188
0.00472128
0.0047273
0.0047695
0.0048479
0.00498944
0.00520622
0.00549095
0.00580261
0.00618801
0.00670183
0.00734421
0.00810925
0.00900358
0.0100169
0.0111426
0.0123417
0.0135626
0.0147191
0.01576
0.0166218
0.0172654
0.0176585
0.0178903
0.0179189
0.0179487
0.0174124
0.0228927
0.0157961
0.0449236
0.101667
0.175426
0.22159
0.24144
0.25204
0.258764
0.261656
0.273168
0.245864
0.0051548
0.00514943
0.00516243
0.00518414
0.00522967
0.00529972
0.00539113
0.00551215
0.00566098
0.00584053
0.00605377
0.00630596
0.00660554
0.00696118
0.00738719
0.00793026
0.00860686
0.00938965
0.0107757
0.0147795
1.12215
0.0101684
0.0124168
0.00703797
0.0151503
0.0266762
0.0465981
0.0143713
0.0718908
0.0810771
0.101929
0.12609
0.150487
0.173481
0.196079
0.219899
0.244159
0.269124
0.276595
0.00518269
0.00522573
0.00529544
0.00538321
0.00549988
0.00566507
0.00587797
0.00613273
0.00643743
0.00682603
0.00731109
0.00787397
0.00849727
0.00917314
0.0098904
0.0106417
0.0114075
0.0121704
0.0129074
0.0136176
0.0142898
0.0149387
0.0156024
0.0164061
0.0173771
0.0183304
0.0191644
0.0198395
0.0207758
0.0221239
0.0257945
0.0324499
0.0461832
0.158151
0.238837
0.234315
0.245569
0.257492
0.242245
0.00595071
0.00595604
0.00597954
0.00602206
0.00608956
0.00618483
0.0063062
0.00645603
0.00663442
0.00683513
0.0070551
0.00728746
0.00752116
0.00774504
0.00794794
0.00813036
0.00833573
0.00860482
0.00893287
0.00945473
0.0114663
0.0220731
0.0904612
0.296662
0
0
0
0.0126164
0.0171569
0.00878394
0.0250739
0.101466
0.194438
0.184721
0.200909
0.221937
0.246433
0.276093
0.29339
0.00595848
0.00597959
0.00602238
0.00609289
0.0061969
0.00635377
0.0065579
0.00680043
0.00709158
0.00745864
0.00790792
0.00843651
0.00904377
0.00973487
0.0105118
0.0113741
0.0123139
0.0133153
0.014352
0.0154033
0.0164437
0.0174678
0.0184993
0.0196751
0.0211344
0.0228177
0.0244836
0.025869
0.0265608
0.0275966
0.0252725
0.0597358
0.0235271
0.039912
0.0282088
0.051981
0.104348
0.114077
0.192209
0.00657334
0.00655945
0.00656079
0.0065726
0.00660513
0.00665891
0.00673304
0.00683263
0.00695878
0.00711199
0.00729567
0.00751119
0.00775972
0.00804369
0.00836542
0.0087423
0.00921709
0.00979504
0.010455
0.0111557
0.0118483
0.0129191
0.0153045
0.0370316
0.119582
0.188744
0.286319
1.10388
0
0.0146655
0.0121209
0.031799
0.0396775
0.102422
0.331383
0.252208
0.255327
0.279125
0.30008
0.00660323
0.00664516
0.00670766
0.0067931
0.00690801
0.00706821
0.00726683
0.00749993
0.00778111
0.00813176
0.00855485
0.00904896
0.00961213
0.0102443
0.0109426
0.0116992
0.0125023
0.0133353
0.0141789
0.0150189
0.0158474
0.0166761
0.0175443
0.0185589
0.0198251
0.0213088
0.0229175
0.0245863
0.0263077
0.0280531
0.0298641
0.0318793
0.0356833
0.0424466
0.0575405
0.0368851
0.0596344
0.0623169
0.0994896
0.00730797
0.00729208
0.00728956
0.00729889
0.00732814
0.00737962
0.00745347
0.00755399
0.00768343
0.00784221
0.0080324
0.00825476
0.0085082
0.008791
0.00910117
0.00943164
0.00976466
0.010108
0.0104973
0.0109567
0.0114601
0.0119439
0.0125056
0.0136403
0.0162213
0.0216914
0.0341388
0.140266
0.203494
0.569326
0
0
0.0241146
0.0456001
0.0338951
0.187714
0.318138
0.291874
0.30396
0.0073381
0.00737949
0.00744102
0.00752845
0.00764685
0.00780704
0.00799933
0.00822625
0.00850017
0.00883413
0.00923126
0.00969256
0.0102194
0.0108148
0.0114798
0.0122127
0.0130094
0.0138609
0.0147544
0.0156794
0.0166282
0.017607
0.0186484
0.0198461
0.0213113
0.0230494
0.0249895
0.0270668
0.0292569
0.0314869
0.0335311
0.035088
0.0360832
0.0375685
0.0445689
0.10002
0.353999
3.03391
0.0225159
0.00802727
0.00800013
0.00798413
0.00797776
0.00798868
0.0080188
0.00806753
0.0081396
0.0082369
0.0083599
0.00851213
0.00869485
0.00890945
0.00915808
0.00944269
0.00976425
0.0101349
0.010579
0.0110949
0.0116615
0.0122429
0.0127884
0.0132386
0.0136431
0.0142733
0.0154609
0.0173391
0.0203849
0.026036
0.0657825
0.19591
0.887878
0
0
0.0214668
0.0784096
0.15446
0.33886
0.312299
0.00806874
0.00811954
0.00818916
0.00828454
0.00840907
0.00857123
0.00875937
0.00898201
0.00924956
0.00956851
0.00994375
0.0103767
0.0108697
0.0114267
0.0120491
0.0127348
0.0134807
0.0142777
0.0151143
0.0159808
0.016873
0.0177985
0.0187886
0.0199194
0.0212787
0.0228756
0.0246635
0.0266112
0.0287409
0.0310848
0.0336367
0.0364075
0.0394202
0.0427084
0.0456995
0.0499119
0.0592916
0.291908
0.0549153
0.00878895
0.00875457
0.00872974
0.00871437
0.00871492
0.00873362
0.00877048
0.00883031
0.00891508
0.0090261
0.00916662
0.00933851
0.00954336
0.00978338
0.0100595
0.010374
0.0107268
0.01111
0.0115264
0.0119817
0.012474
0.0129837
0.0134873
0.0139972
0.0145938
0.0153843
0.0164332
0.0176503
0.0190513
0.0215536
0.0254211
0.0916958
0.304958
0
0
0
0.0811253
0.262277
0.329825
0.00883689
0.00889327
0.00896767
0.00906963
0.00919884
0.00936219
0.00954841
0.00976825
0.0100298
0.0103358
0.0106914
0.0110986
0.0115608
0.0120826
0.0126673
0.0133152
0.0140254
0.014794
0.0156145
0.0164809
0.0173916
0.018356
0.0194038
0.0205984
0.022017
0.0236838
0.0255662
0.027634
0.0298974
0.0323706
0.0350169
0.0377076
0.040235
0.0423311
0.0437055
0.043509
0.0420789
0.0408571
0.459633
0.00957248
0.00952891
0.00949299
0.0094655
0.00945274
0.00945596
0.00947571
0.00951671
0.00958047
0.00966844
0.0097841
0.00992918
0.0101056
0.0103159
0.0105621
0.0108469
0.0111714
0.0115441
0.0119736
0.0124527
0.0129621
0.0134776
0.0139858
0.0145208
0.0151725
0.0160166
0.0170493
0.0181469
0.0191635
0.0201534
0.0210984
0.0235953
0.0367544
0.200867
13.6535
0
0.0674547
0.0466264
0.351006
0.00962925
0.00969277
0.00977366
0.00988336
0.010018
0.0101823
0.0103686
0.0105872
0.010843
0.0111377
0.0114761
0.0118603
0.0122945
0.0127845
0.0133337
0.0139438
0.0146163
0.0153485
0.0161372
0.0169787
0.0178729
0.0188294
0.0198747
0.02106
0.022451
0.0240725
0.0259021
0.0279184
0.0301362
0.0325845
0.0352651
0.0381452
0.0411799
0.0441526
0.0467866
0.0474081
0.0477454
0.0373645
0.066251
0.0103889
0.0103368
0.0102906
0.0102522
0.0102277
0.0102176
0.0102235
0.0102493
0.0102971
0.0103682
0.0104663
0.0105933
0.0107516
0.010944
0.0111726
0.0114397
0.011748
0.0120979
0.0124889
0.0129203
0.0133841
0.01387
0.0143714
0.0149138
0.0155736
0.0164312
0.0174938
0.0186618
0.0197948
0.0207997
0.0216863
0.0222374
0.0235952
0.0280852
1.51252
0.377169
0
0.0553296
0.302348
0.0104539
0.0105242
0.010611
0.0107285
0.0108689
0.0110343
0.011222
0.0114404
0.0116911
0.0119757
0.0122991
0.0126631
0.013072
0.0135322
0.0140484
0.0146236
0.0152611
0.0159614
0.0167232
0.0175464
0.018434
0.0193965
0.0204586
0.0216647
0.0230704
0.024703
0.0265527
0.0286041
0.0308694
0.0333707
0.0360998
0.0389939
0.0419257
0.0446204
0.046797
0.0471083
0.0472152
0.0398247
0.0356005
0.011237
0.0111755
0.0111187
0.0110689
0.0110318
0.0110079
0.0109987
0.0110084
0.0110388
0.0110911
0.0111692
0.0112749
0.0114106
0.0115792
0.0117832
0.0120251
0.0123075
0.012631
0.0130012
0.0134187
0.0138725
0.0143504
0.0148481
0.0153879
0.016034
0.0168599
0.0178838
0.0190336
0.0202021
0.0213203
0.0224072
0.0232547
0.0238672
0.0239592
0.0289349
0.215565
0
0.0332079
0.195243
0.0113105
0.0113886
0.0114818
0.0116071
0.0117535
0.0119211
0.012111
0.0123299
0.0125762
0.0128525
0.0131626
0.0135085
0.0138946
0.0143283
0.0148141
0.0153564
0.0159607
0.016629
0.0173636
0.0181656
0.0190393
0.0199962
0.0210605
0.0222709
0.0236718
0.0252913
0.0271268
0.0291691
0.0314301
0.0339324
0.0366782
0.0396244
0.0426909
0.0456477
0.0481688
0.0489076
0.0486675
0.0429693
0.0340188
0.0121203
0.0120493
0.0119817
0.0119205
0.0118712
0.011834
0.0118102
0.0118045
0.0118185
0.0118537
0.0119135
0.012
0.0121157
0.0122639
0.0124468
0.0126671
0.0129277
0.013229
0.0135731
0.0139611
0.0143872
0.0148435
0.0153298
0.0158654
0.0165015
0.0172996
0.018279
0.0193835
0.0205228
0.0216489
0.0227749
0.0238688
0.0248026
0.0252761
0.0246267
0.0315713
1.43615
0.0213572
0.109883
0.0122024
0.0122886
0.0123888
0.0125218
0.0126745
0.0128452
0.0130381
0.013258
0.0135011
0.0137698
0.0140683
0.0143984
0.0147645
0.0151736
0.0156321
0.0161447
0.0167179
0.0173559
0.0180631
0.0188436
0.0197037
0.0206563
0.0217242
0.0229409
0.0243449
0.0259631
0.0278008
0.0298544
0.0321364
0.0346686
0.0374537
0.0404461
0.04355
0.0465239
0.049031
0.0498633
0.0495487
0.0447769
0.03549
0.0130406
0.01296
0.0128812
0.0128082
0.0127465
0.0126953
0.0126569
0.0126359
0.0126334
0.0126513
0.0126927
0.01276
0.0128552
0.0129817
0.0131419
0.0133387
0.0135752
0.0138517
0.0141707
0.0145351
0.0149417
0.0153819
0.0158567
0.0163837
0.0170059
0.0177758
0.0187124
0.0197711
0.0208724
0.021972
0.0230723
0.024179
0.0252391
0.0261901
0.0265157
0.0243908
0.313489
0.0631902
0.0537974
0.0131322
0.0132266
0.0133345
0.0134754
0.0136344
0.0138095
0.0140064
0.0142273
0.014468
0.0147307
0.0150193
0.0153353
0.0156832
0.0160709
0.0165039
0.0169888
0.0175335
0.018143
0.0188235
0.0195817
0.0204267
0.0213718
0.022439
0.023657
0.0250592
0.0266726
0.0285062
0.0305624
0.032855
0.0354055
0.0382206
0.0412623
0.0444503
0.0475618
0.0502615
0.0513145
0.0511247
0.0465469
0.0374142
0.0140008
0.0139103
0.0138198
0.0137351
0.0136606
0.0135953
0.0135425
0.0135061
0.0134874
0.0134882
0.0135118
0.0135599
0.0136354
0.0137411
0.01388
0.0140546
0.0142676
0.0145209
0.014815
0.0151532
0.0155361
0.0159562
0.0164156
0.0169306
0.0175368
0.0182786
0.019175
0.0201912
0.0212584
0.0223324
0.0234085
0.0244818
0.0255401
0.0264496
0.0278327
0.0256269
0.0320415
3.99992
0.131089
0.0141024
0.0142053
0.0143213
0.0144706
0.014636
0.0148166
0.0150181
0.0152408
0.0154798
0.0157377
0.0160176
0.0163215
0.0166538
0.0170219
0.0174326
0.0178922
0.0184098
0.0189925
0.0196481
0.0203851
0.0212136
0.0221482
0.0232113
0.0244307
0.0258343
0.0274456
0.0292789
0.0313423
0.0336515
0.0362288
0.0390841
0.0421842
0.0454525
0.048669
0.051503
0.0527324
0.0526784
0.0484005
0.0393984
0.0150036
0.0149027
0.0148002
0.0147034
0.0146155
0.014536
0.0144683
0.0144163
0.0143813
0.014365
0.0143707
0.0144003
0.0144562
0.0145415
0.0146584
0.0148103
0.0149997
0.0152291
0.0154981
0.0158111
0.016171
0.0165715
0.0170145
0.0175146
0.0181023
0.0188156
0.0196723
0.020646
0.0216789
0.0227281
0.023785
0.0248353
0.0258757
0.0267489
0.0279095
0.0281569
0.025561
0.719708
1.23118
0.0151153
0.0152276
0.0153519
0.0155099
0.0156822
0.0158692
0.0160762
0.0163013
0.0165397
0.0167938
0.0170667
0.0173599
0.0176781
0.0180293
0.0184196
0.018857
0.0193502
0.019908
0.0205396
0.0212553
0.0220671
0.0229908
0.0240487
0.025266
0.0266679
0.0282768
0.0301101
0.0321804
0.0345059
0.0371105
0.040008
0.0431722
0.0465371
0.0498959
0.0529243
0.0543931
0.054489
0.0504804
0.0415016
0.0160516
0.0159397
0.0158251
0.0157154
0.015614
0.01552
0.0154371
0.0153693
0.015318
0.0152848
0.0152728
0.015284
0.0153203
0.0153849
0.0154805
0.01561
0.0157762
0.0159818
0.0162264
0.0165142
0.0168495
0.0172288
0.0176533
0.0181357
0.0187026
0.0193867
0.0202045
0.0211362
0.0221337
0.023157
0.0241941
0.0252301
0.0262481
0.0271736
0.0279244
0.0296528
0.0255828
0.138566
18.1194
0.0161735
0.0162955
0.0164292
0.0165962
0.0167758
0.0169703
0.0171835
0.0174116
0.0176503
0.0179018
0.0181689
0.0184534
0.01876
0.019096
0.0194685
0.0198854
0.0203566
0.0208912
0.0215003
0.0221951
0.0229897
0.0239014
0.0249529
0.0261675
0.0275676
0.0291759
0.0310108
0.0330899
0.0354347
0.0380709
0.0410173
0.0442556
0.0477292
0.0512431
0.0544815
0.0562128
0.0564763
0.0527424
0.0437839
0.0171475
0.0170242
0.0168972
0.0167739
0.0166589
0.0165497
0.0164513
0.0163675
0.0162996
0.0162492
0.0162195
0.0162119
0.0162289
0.0162735
0.0163479
0.0164553
0.0165982
0.0167799
0.0170002
0.0172628
0.0175731
0.0179306
0.0183351
0.0187975
0.0193415
0.0199955
0.0207748
0.0216648
0.0226259
0.0236215
0.0246366
0.0256587
0.0266569
0.0276221
0.0282648
0.0298784
0.0274458
0.0365545
0.538225
0.01728
0.0174122
0.0175559
0.0177326
0.0179199
0.0181229
0.018343
0.0185751
0.0188151
0.0190653
0.0193281
0.0196052
0.0199016
0.0202249
0.0205818
0.0209809
0.0214323
0.021946
0.0225339
0.0232094
0.0239869
0.0248849
0.0259271
0.0271383
0.028539
0.0301473
0.0319848
0.0340738
0.0364398
0.0391112
0.0421122
0.0454347
0.0490336
0.0527303
0.0562212
0.058264
0.0587211
0.0552201
0.0462747
0.0182941
0.0181593
0.0180189
0.0178821
0.0177524
0.017628
0.0175134
0.0174134
0.0173286
0.0172608
0.0172132
0.0171875
0.0171853
0.0172099
0.0172632
0.0173484
0.0174683
0.0176258
0.0178221
0.0180596
0.0183445
0.0186793
0.019062
0.0195024
0.0200217
0.0206451
0.0213863
0.022235
0.0231589
0.0241251
0.0251167
0.0261215
0.0271072
0.0280688
0.028802
0.0298452
0.0296571
0.0293557
0.0808633
0.0184379
0.018581
0.0187352
0.018922
0.0191182
0.0193302
0.0195582
0.0197949
0.0200374
0.0202873
0.020547
0.0208186
0.0211067
0.0214193
0.021763
0.0221464
0.0225802
0.0230752
0.0236439
0.0243002
0.0250613
0.0259469
0.0269814
0.0281877
0.0295859
0.0311946
0.0330369
0.0351387
0.0375291
0.040241
0.0433046
0.0467238
0.0504662
0.054374
0.0581589
0.0605634
0.0612473
0.0579473
0.0489993
0.0194948
0.0193479
0.0191938
0.0190426
0.018898
0.0187574
0.0186265
0.0185097
0.0184076
0.0183223
0.0182569
0.0182125
0.018191
0.0181953
0.0182276
0.0182908
0.0183878
0.0185215
0.0186941
0.0189067
0.0191657
0.0194765
0.0198364
0.0202532
0.0207464
0.0213382
0.0220416
0.0228494
0.0237355
0.0246709
0.025638
0.026623
0.0276
0.02854
0.0293845
0.0300711
0.0310687
0.0294323
0.0392693
0.0196504
0.019805
0.0199704
0.0201676
0.0203741
0.0205958
0.0208322
0.021075
0.0213209
0.0215718
0.0218299
0.0220974
0.0223791
0.0226827
0.0230152
0.0233853
0.0238038
0.0242819
0.0248333
0.0254728
0.0262178
0.02709
0.0281156
0.0293175
0.0307143
0.0323254
0.0341747
0.0362915
0.0387096
0.0414669
0.0446011
0.0481302
0.052037
0.0561909
0.0603233
0.0631575
0.064112
0.060957
0.0519693
0.0207529
0.0205931
0.0204248
0.0202587
0.0200985
0.0199412
0.0197935
0.0196593
0.0195396
0.0194366
0.0193528
0.0192897
0.019249
0.0192333
0.0192448
0.0192861
0.0193604
0.0194704
0.0196189
0.0198059
0.020039
0.0203247
0.0206606
0.0210525
0.0215181
0.0220779
0.0227436
0.0235109
0.0243588
0.0252621
0.0262034
0.0271674
0.0281352
0.0290593
0.0299632
0.0305712
0.0317323
0.030981
0.0329128
0.0209208
0.0210876
0.0212647
0.0214729
0.0216907
0.0219232
0.0221689
0.0224185
0.0226689
0.022922
0.0231803
0.0234455
0.0237224
0.024019
0.0243422
0.0247011
0.0251068
0.0255702
0.0261057
0.0267295
0.0274605
0.0283204
0.0293364
0.0305335
0.0319311
0.0335463
0.0354041
0.0375385
0.0399882
0.0427969
0.0460115
0.0496661
0.0537623
0.0582038
0.0627479
0.066095
0.0673775
0.0643074
0.0552193
0.0220719
0.0218988
0.0217153
0.0215339
0.021357
0.0211826
0.0210174
0.0208654
0.0207277
0.0206063
0.0205042
0.0204222
0.0203621
0.0203264
0.0203168
0.0203363
0.0203877
0.0204738
0.020598
0.0207601
0.0209673
0.0212271
0.0215379
0.0219039
0.0223407
0.0228676
0.0234958
0.0242228
0.0250321
0.0259023
0.0268165
0.0277589
0.0287145
0.029633
0.0305533
0.031226
0.0322038
0.0325978
0.0324274
0.0222524
0.0224324
0.0226217
0.0228417
0.0230717
0.0233158
0.0235717
0.0238293
0.0240857
0.0243426
0.0246019
0.0248661
0.0251402
0.0254319
0.0257483
0.026098
0.0264926
0.0269438
0.027466
0.0280758
0.0287931
0.029642
0.0306504
0.031844
0.0332416
0.0348615
0.0367307
0.0388861
0.0413724
0.04424
0.0475461
0.051343
0.0556576
0.0604359
0.0654719
0.069441
0.0711215
0.0680554
0.0587761
0.0234553
0.0232682
0.023069
0.0228714
0.0226773
0.022485
0.0223015
0.0221313
0.0219749
0.0218349
0.0217138
0.0216127
0.0215328
0.0214768
0.0214463
0.021444
0.0214727
0.0215351
0.021635
0.0217723
0.0219534
0.0221863
0.022471
0.0228101
0.0232172
0.0237107
0.0243016
0.0249885
0.0257591
0.0265952
0.0274813
0.0284018
0.0293431
0.0302613
0.0311821
0.0319488
0.0327839
0.0338403
0.0334708
0.0236489
0.0238427
0.0240451
0.0242778
0.024521
0.0247776
0.0250449
0.0253116
0.025575
0.025837
0.0260994
0.0263644
0.0266375
0.0269258
0.0272368
0.0275799
0.0279659
0.0284068
0.0289176
0.0295157
0.0302214
0.0310601
0.0320615
0.0332521
0.0346515
0.0362779
0.0381619
0.0403425
0.0428704
0.0458041
0.0492133
0.0531718
0.0577381
0.0629114
0.0685384
0.073274
0.0754541
0.0722771
0.0626664
0.0249068
0.0247051
0.0244897
0.0242748
0.024063
0.0238521
0.0236496
0.0234604
0.0232851
0.0231258
0.0229856
0.0228648
0.0227652
0.0226886
0.0226368
0.0226126
0.0226184
0.0226572
0.0227324
0.0228447
0.0229996
0.0232048
0.0234627
0.0237739
0.0241509
0.0246109
0.0251645
0.0258117
0.0265435
0.0273447
0.0282017
0.0290994
0.0300258
0.0309445
0.0318678
0.0327103
0.0335217
0.0348211
0.0348836
0.0251145
0.0253221
0.0255387
0.0257848
0.0260422
0.0263123
0.0265922
0.0268694
0.0271414
0.02741
0.0276766
0.0279439
0.0282174
0.0285048
0.0288132
0.0291514
0.0295308
0.0299636
0.0304652
0.0310532
0.0317489
0.0325788
0.0335745
0.0347638
0.0361673
0.0378042
0.0397046
0.0419144
0.0444895
0.0474975
0.0510228
0.0551646
0.060019
0.0656544
0.0719969
0.0776934
0.0805112
0.0770769
0.0669348
0.0264304
0.0262135
0.0259812
0.025748
0.0255178
0.0252873
0.0250654
0.0248565
0.0246613
0.0244824
0.0243224
0.0241816
0.0240618
0.0239644
0.0238915
0.0238451
0.0238279
0.0238429
0.0238932
0.0239808
0.0241089
0.0242864
0.0245172
0.0248001
0.025146
0.0255718
0.0260881
0.0266959
0.0273888
0.0281549
0.0289819
0.0298562
0.0307675
0.0316853
0.032617
0.0335133
0.0343791
0.0357514
0.0363109
0.0266529
0.0268751
0.0271067
0.0273671
0.0276395
0.0279246
0.0282179
0.0285068
0.0287888
0.0290654
0.0293382
0.0296099
0.0298861
0.0301739
0.0304809
0.0308166
0.0311919
0.0316189
0.0321132
0.0326937
0.0333818
0.0342052
0.0351965
0.0363859
0.0377944
0.0394439
0.0413647
0.0436084
0.0462367
0.0493285
0.0529842
0.0573319
0.0625153
0.0686913
0.0759057
0.082832
0.0864916
0.0825672
0.0716089
0.0280307
0.0277975
0.0275474
0.0272954
0.0270458
0.0267952
0.0265527
0.0263237
0.0261078
0.0259087
0.0257282
0.0255671
0.0254265
0.0253083
0.0252138
0.025145
0.0251047
0.0250957
0.0251212
0.0251837
0.0252852
0.0254343
0.0256372
0.025891
0.0262056
0.0265974
0.0270769
0.0276457
0.0282997
0.0290302
0.0298267
0.0306773
0.0315726
0.03249
0.0334331
0.0343735
0.0353213
0.0367441
0.0377051
0.0282682
0.0285059
0.0287536
0.029029
0.0293175
0.0296186
0.0299265
0.0302287
0.030522
0.0308083
0.0310887
0.0313664
0.031647
0.0319376
0.0322456
0.0325804
0.0329535
0.0333773
0.0338668
0.0344413
0.0351237
0.0359429
0.036933
0.0381252
0.0395422
0.0412057
0.0431513
0.0454331
0.048121
0.051306
0.055106
0.0596837
0.0652427
0.072049
0.0803276
0.0888593
0.0936717
0.0889069
0.0767324
0.0297119
0.0294617
0.0291926
0.0289212
0.0286514
0.0283796
0.0281161
0.0278658
0.0276288
0.0274084
0.0272071
0.0270251
0.0268633
0.0267237
0.0266072
0.0265159
0.0264525
0.0264193
0.0264198
0.0264569
0.0265316
0.0266524
0.0268266
0.027051
0.0273341
0.0276919
0.0281347
0.028665
0.0292806
0.0299751
0.0307407
0.0315673
0.0324468
0.0333623
0.0343199
0.0353013
0.0363327
0.0378269
0.0391067
0.0299651
0.0302189
0.0304837
0.030775
0.0310806
0.0313991
0.0317228
0.0320393
0.0323455
0.0326432
0.0329333
0.0332187
0.0335053
0.0338004
0.0341117
0.0344481
0.0348212
0.0352431
0.0357303
0.0363018
0.0369807
0.0377972
0.0387879
0.0399846
0.0414123
0.0430937
0.0450675
0.0473926
0.0501474
0.0534343
0.057394
0.0622267
0.0682077
0.0757443
0.0853258
0.0959999
0.102464
0.0962859
0.0823317
0.0314785
0.0312108
0.0309216
0.03063
0.0303389
0.030045
0.0297597
0.0294871
0.0292283
0.028986
0.0287632
0.0285596
0.0283765
0.028215
0.0280762
0.0279623
0.0278752
0.0278179
0.0277931
0.0278043
0.027852
0.0279445
0.0280896
0.0282847
0.0285363
0.0288599
0.0292663
0.0297584
0.0303359
0.0309949
0.0317291
0.032531
0.0333956
0.0343084
0.0352811
0.0363035
0.0374156
0.0389971
0.0405486
0.0317484
0.0320189
0.0323015
0.0326099
0.0329335
0.0332703
0.0336114
0.0339437
0.0342644
0.0345751
0.0348765
0.0351717
0.0354666
0.035768
0.0360841
0.036424
0.0367993
0.0372223
0.0377092
0.0382797
0.038958
0.0397746
0.040768
0.041972
0.043413
0.0451159
0.047122
0.0494954
0.0523231
0.0557208
0.0598535
0.0649647
0.0714125
0.0797846
0.0909538
0.104549
0.113523
0.104946
0.088429
0.0333358
0.0330494
0.0327397
0.0324266
0.0321135
0.0317967
0.0314883
0.0311928
0.0309112
0.0306465
0.0304013
0.0301756
0.0299701
0.0297862
0.0296248
0.0294876
0.0293768
0.0292949
0.0292447
0.0292298
0.0292506
0.0293148
0.0294308
0.0295958
0.0298161
0.0301062
0.0304767
0.0309313
0.031471
0.0320945
0.0327976
0.0335747
0.0344234
0.0353352
0.036322
0.0373881
0.0385784
0.040254
0.0420497
0.0336233
0.0339108
0.0342119
0.034539
0.0348815
0.0352375
0.0355974
0.0359469
0.0362837
0.036609
0.0369234
0.0372303
0.0375351
0.0378454
0.0381682
0.0385137
0.0388932
0.0393193
0.0398083
0.0403802
0.0410595
0.0418788
0.0428776
0.0440919
0.04555
0.047277
0.0493191
0.0517451
0.054651
0.0581678
0.0624845
0.0678942
0.0748504
0.0841612
0.0972399
0.114888
0.127952
0.115152
0.0950129
0.0352891
0.0349828
0.0346518
0.0343162
0.0339799
0.0336395
0.0333068
0.0329875
0.0326821
0.0323941
0.0321256
0.031877
0.0316488
0.0314421
0.0312575
0.0310971
0.030962
0.0308552
0.0307792
0.0307382
0.0307319
0.0307677
0.0308543
0.0309895
0.0311787
0.0314355
0.0317705
0.0321884
0.0326913
0.0332795
0.0339515
0.0347044
0.0355374
0.0364473
0.0374496
0.0385586
0.039826
0.0415957
0.0436145
0.0355948
0.0359002
0.0362204
0.0365673
0.0369297
0.037306
0.0376858
0.0380542
0.0384085
0.0387503
0.0390798
0.0393997
0.0397163
0.0400373
0.0403693
0.0407226
0.0411084
0.0415393
0.0420323
0.0426079
0.043291
0.0441155
0.0451225
0.0463494
0.0478262
0.0495815
0.0516627
0.0541457
0.0571347
0.0607764
0.065286
0.0710074
0.0785016
0.0888318
0.104141
0.127448
0.147817
0.127145
0.102019
0.0373435
0.0370167
0.0366632
0.0363043
0.0359439
0.0355783
0.0352207
0.0348765
0.0345462
0.0342339
0.0339416
0.0336694
0.0334178
0.0331877
0.0329796
0.0327948
0.0326352
0.0325034
0.0324018
0.0323342
0.0323008
0.0323082
0.0323651
0.0324705
0.032629
0.0328532
0.0331534
0.0335353
0.0340022
0.0345559
0.0351973
0.0359257
0.0367437
0.037652
0.0386699
0.03982
0.0411647
0.0430301
0.0452493
0.0376683
0.0379925
0.0383326
0.0387002
0.0390836
0.0394813
0.0398822
0.0402708
0.0406443
0.0410043
0.0413501
0.0416857
0.0420164
0.0423492
0.042692
0.043055
0.0434492
0.0438874
0.0443867
0.0449682
0.0456574
0.0464887
0.0475063
0.0487493
0.0502477
0.0520335
0.0541566
0.0566992
0.0597745
0.0635437
0.0682493
0.0742848
0.082325
0.0937113
0.111493
0.142548
0.177681
0.140922
0.109308
0.0395051
0.0391567
0.0387799
0.0383966
0.038011
0.0376193
0.0372356
0.0368655
0.0365094
0.036172
0.0358549
0.0355582
0.0352824
0.0350281
0.0347957
0.0345865
0.0344022
0.034245
0.0341172
0.0340226
0.0339619
0.033941
0.0339686
0.0340446
0.0341728
0.0343648
0.0346312
0.034978
0.0354096
0.0359298
0.0365412
0.0372459
0.0380488
0.0389558
0.0399892
0.0411812
0.0425997
0.0445577
0.0469604
0.0398498
0.0401935
0.0405545
0.0409436
0.0413489
0.0417691
0.0421923
0.0426024
0.0429965
0.0433763
0.0437407
0.0440931
0.0444394
0.0447867
0.0451425
0.0455168
0.045921
0.0463682
0.046876
0.0474649
0.0481618
0.0490028
0.0500331
0.0512939
0.0528172
0.0546351
0.0568027
0.0594064
0.0625684
0.0664633
0.0713594
0.0776997
0.0862637
0.0986671
0.118938
0.159727
0.230337
0.155755
0.116626
0.0417801
0.0414092
0.0410082
0.0405993
0.0401873
0.0397684
0.0393573
0.0389601
0.0385773
0.0382135
0.0378707
0.0375487
0.037248
0.0369689
0.0367118
0.0364775
0.0362678
0.0360845
0.0359302
0.0358087
0.035721
0.0356718
0.03567
0.0357171
0.0358156
0.0359765
0.0362099
0.0365227
0.0369202
0.0374077
0.0379899
0.0386714
0.03946
0.0403657
0.0414151
0.0426474
0.0441405
0.0461878
0.0487515
0.0421457
0.0425092
0.0428921
0.0433038
0.0437318
0.0441754
0.0446222
0.0450548
0.0454709
0.0458717
0.0462563
0.0466275
0.0469915
0.0473548
0.0477251
0.0481129
0.0485285
0.0489865
0.0495043
0.050103
0.0508104
0.0516626
0.0527071
0.0539872
0.0555363
0.0573886
0.0596013
0.0622655
0.0655106
0.0695253
0.0745984
0.0812138
0.0902391
0.103509
0.125879
0.176172
0.369523
0.169362
0.123609
0.044175
0.0437809
0.0433546
0.0429188
0.0424794
0.0420319
0.0415924
0.0411667
0.040756
0.0403645
0.0399952
0.039647
0.0393203
0.0390157
0.0387331
0.0384733
0.0382378
0.0380283
0.0378476
0.037699
0.0375841
0.0375065
0.0374758
0.0374944
0.0375637
0.0376939
0.0378955
0.0381756
0.0385404
0.0389964
0.0395506
0.0402097
0.0409846
0.0418894
0.0429544
0.0442259
0.0457902
0.047927
0.0506328
0.0445624
0.0449467
0.045352
0.0457871
0.0462385
0.0467065
0.0471774
0.0476341
0.0480735
0.0484968
0.0489033
0.0492947
0.0496773
0.0500586
0.0504452
0.0508472
0.0512768
0.0517474
0.0522764
0.0528862
0.0536042
0.0544694
0.0555308
0.0568324
0.0584084
0.0602943
0.06255
0.0652717
0.0685941
0.072716
0.0779409
0.0847808
0.0941588
0.108023
0.131588
0.185893
0.551152
0.178012
0.129827
0.0466971
0.0462786
0.0458259
0.0453623
0.044894
0.0444169
0.0439475
0.0434924
0.0430521
0.0426321
0.0422349
0.0418595
0.041506
0.0411751
0.0408665
0.0405805
0.0403185
0.0400825
0.0398748
0.0396988
0.0395567
0.0394511
0.0393919
0.0393823
0.0394232
0.0395241
0.0396952
0.0399439
0.0402773
0.0407032
0.0412304
0.0418683
0.0426302
0.0435346
0.0446149
0.0459251
0.0475563
0.0497779
0.0526107
0.047107
0.0475128
0.0479412
0.0484004
0.0488761
0.049369
0.049865
0.0503466
0.0508101
0.0512573
0.0516866
0.0520999
0.0525036
0.0529037
0.0533076
0.0537259
0.0541705
0.0546542
0.0551959
0.0558182
0.056549
0.0574281
0.0585056
0.0598285
0.0614317
0.0633508
0.0656473
0.0684203
0.0718089
0.0760165
0.081357
0.0883498
0.0979271
0.112006
0.135478
0.185048
0.285864
0.179458
0.134908
0.0493534
0.0489099
0.0484298
0.047937
0.0474385
0.0469303
0.0464296
0.0459432
0.0454724
0.0450229
0.0445967
0.0441928
0.0438119
0.0434538
0.0431181
0.0428053
0.0425165
0.0422535
0.0420186
0.0418152
0.0416457
0.0415124
0.0414249
0.0413879
0.0414013
0.041474
0.0416158
0.0418345
0.042138
0.0425355
0.0430373
0.0436551
0.044405
0.0453091
0.046405
0.0477512
0.0494476
0.0517484
0.0546924
0.0497871
0.0502149
0.0506671
0.051151
0.0516514
0.0521697
0.0526918
0.0531985
0.0536873
0.0541592
0.0546126
0.0550489
0.055474
0.0558946
0.0563176
0.0567532
0.0572131
0.0577113
0.0582671
0.0589021
0.0596457
0.0605394
0.0616342
0.0629781
0.0646067
0.0665556
0.0688876
0.071703
0.0751417
0.0794094
0.0848174
0.0918743
0.101467
0.11533
0.137424
0.177252
0.222969
0.17538
0.138654
0.0521521
0.0516827
0.0511739
0.0506509
0.0501208
0.0495799
0.0490464
0.0485273
0.0480249
0.0475441
0.0470875
0.0466541
0.0462444
0.0458583
0.0454948
0.0451546
0.0448386
0.0445483
0.0442858
0.0440547
0.043858
0.0436972
0.0435823
0.0435182
0.043505
0.0435507
0.0436647
0.043855
0.0441305
0.0445013
0.0449793
0.0455782
0.046317
0.0472215
0.0483327
0.0497136
0.0514713
0.0538459
0.0568871
0.0526101
0.053061
0.0535374
0.0540464
0.0545719
0.0551162
0.0556644
0.0561972
0.0567114
0.0572088
0.0576869
0.0581471
0.0585954
0.0590369
0.0594791
0.0599329
0.0604093
0.0609231
0.0614925
0.0621407
0.0628982
0.0638055
0.0649166
0.0662804
0.0679311
0.0699057
0.0722659
0.0751111
0.0785803
0.0828752
0.0882938
0.0953138
0.104729
0.117969
0.137786
0.167907
0.192976
0.169092
0.141122
0.0551019
0.0546054
0.0540667
0.0535123
0.052949
0.0523739
0.051806
0.051253
0.0507169
0.0502032
0.0497148
0.0492511
0.0488116
0.0483964
0.0480041
0.0476357
0.0472917
0.0469736
0.0466834
0.0464247
0.0462002
0.0460125
0.045871
0.0457809
0.0457422
0.0457622
0.0458499
0.0460136
0.0462628
0.0466087
0.0470645
0.0476463
0.0483752
0.0492803
0.0504061
0.0518201
0.0536351
0.0560778
0.0592032
0.0555846
0.0560593
0.0565607
0.0570948
0.0576456
0.0582159
0.0587904
0.0593491
0.0598892
0.0604127
0.060916
0.0614005
0.0618719
0.0623354