/*--------------------------------*- C++ -*----------------------------------*\
| =========                 |                                                 |
| \\      /  F ield         | OpenFOAM: The Open Source CFD Toolbox           |
|  \\    /   O peration     | Version:  2312                                  |
|   \\  /    A nd           | Website:  www.openfoam.com                      |
|    \\/     M anipulation  |                                                 |
\*---------------------------------------------------------------------------*/
FoamFile
{
    version     2.0;
    format      ascii;
    arch        "LSB;label=32;scalar=64";
    class       volScalarField;
    location    "200";
    object      turbulenceProperties:I;
}
// * * * * * * * * * * * * * * * * * * * * * * * * * * * * * * * * * * * * * //

dimensions      [0 0 0 0 0 0 0];

internalField   nonuniform List<scalar> 
10720
(
0.00417405
0.00414825
0.00416767
0.00429534
0.00445795
0.00468654
0.0049987
0.00538345
0.00585982
0.0064465
0.00716284
0.008051
0.00917084
0.0106053
0.0124955
0.015041
0.0186167
0.0237233
0.0317669
0.0441133
0.0682242
0.109958
0.219687
0.407849
0.495457
0.459364
0.403634
0.363066
0.336754
0.319989
0.309104
0.301602
0.297312
0.2953
0.29536
0.297576
0.305511
0.315998
0.386567
0.00422663
0.00438521
0.00456846
0.00499456
0.00570497
0.00708269
0.010277
0.0170661
0.0132911
0.00867526
0.0072961
0.00705179
0.00730877
0.00786917
0.00865778
0.00966936
0.0109441
0.0125763
0.0147112
0.0175516
0.021434
0.0267602
0.0344719
0.045443
0.0628616
0.0886324
0.131338
0.187136
0.221682
0.234751
0.238662
0.240311
0.241533
0.242581
0.243565
0.244676
0.246118
0.249545
0.256073
0.00182226
0.00166845
0.00153025
0.00139991
0.00127891
0.00117038
0.00107096
0.000979333
0.000898068
0.000825252
0.000760287
0.000711666
0.000691469
0.000709579
0.000791668
0.000972794
0.00131548
0.00188098
0.00289626
0.00458464
0.00794363
0.0138711
0.0255693
0.0502261
0.0778159
0.105142
0.132276
0.156102
0.170826
0.17376
0.168079
0.15911
0.150936
0.145103
0.14227
0.142623
0.151456
0.163807
0.306879
0.00198887
0.00219744
0.00247819
0.00287928
0.00347984
0.00442268
0.00586588
0.00716166
0.0063399
0.00443118
0.00311571
0.00233011
0.00182974
0.0014845
0.00123139
0.00103734
0.000882256
0.000754521
0.00064375
0.000541829
0.000437822
0.000324755
0.000184927
7.22801e-05
0.000118268
0.00130564
0.00297972
0.00834437
0.0151659
0.0211236
0.0258208
0.0294306
0.0322905
0.034775
0.0371432
0.039632
0.0424994
0.0476981
0.0613111
0.00158184
0.00145726
0.00133525
0.00122054
0.00112187
0.00103437
0.000958616
0.000895904
0.000844783
0.00080471
0.000773684
0.000751816
0.00073835
0.000732952
0.000728884
0.000714847
0.000667751
0.000618693
0.000213635
0.00150676
0.000915314
0.0012022
0.000513783
0.00244148
0.00751231
0.0144143
0.023964
0.0379817
0.0571129
0.0796437
0.101678
0.118595
0.127906
0.131363
0.132742
0.134494
0.14162
0.149313
0.248222
0.00172616
0.00189772
0.00213466
0.00245086
0.00287665
0.0034336
0.00406359
0.00446086
0.00422886
0.00347753
0.00270594
0.00211134
0.00167788
0.00135781
0.00111783
0.000934273
0.000793267
0.00068478
0.000602444
0.000539806
0.000492856
0.000458282
0.000434025
0.000416333
0.000405923
0.000396605
0.000402456
0.000305828
0.0008039
0.00203761
0.00341191
0.0049275
0.00737564
0.0106958
0.0143331
0.0179392
0.0214527
0.0239996
0.0338153
0.00149245
0.0013886
0.00128857
0.0011976
0.00111428
0.00103679
0.000966205
0.000901137
0.000841429
0.00078637
0.000735366
0.000687612
0.000642246
0.000598729
0.000556337
0.000512941
0.000469515
0.000428964
0.000374687
0.000289398
1.5873e-05
0.000408896
0.000354215
0.00140003
0.00279144
0.00395512
0.00484134
0.000658263
0.00294611
0.0109758
0.0251428
0.0450827
0.0678162
0.0885947
0.104298
0.115481
0.127517
0.139073
0.209407
0.00160257
0.00173105
0.00189448
0.00210959
0.00237722
0.00268875
0.00299285
0.00316583
0.00307277
0.00271963
0.00228008
0.00188513
0.0015685
0.00132196
0.00113043
0.000979898
0.00086077
0.000765557
0.000689015
0.00062624
0.000574305
0.000530229
0.000491316
0.000453601
0.000417484
0.000387607
0.000364544
0.000347498
0.000328307
0.000306008
0.00026079
0.000207148
0.000579003
0.000760345
0.00146882
0.00341609
0.00628475
0.0101956
0.0207683
0.00131626
0.00123083
0.00114678
0.00106734
0.000994052
0.000924915
0.000861037
0.000802457
0.000748715
0.000700299
0.000657036
0.000618911
0.00058613
0.000558725
0.000536634
0.000519106
0.000502827
0.000485336
0.000467395
0.000442179
0.000366859
0.0002206
8.6021e-05
4.00934e-05
0
0
0
0.000378677
0.00289223
0.00129612
0.002915
0.00517068
0.011114
0.030877
0.0552768
0.0794024
0.101749
0.121656
0.177746
0.00140758
0.00151125
0.00163982
0.00179789
0.00197874
0.00216902
0.00233685
0.00242694
0.00238281
0.00219781
0.00193765
0.00167065
0.00143079
0.00122658
0.00105636
0.000915224
0.000798372
0.000701738
0.000622036
0.000556099
0.000501525
0.000455874
0.000416762
0.000380544
0.000345384
0.000313243
0.000286993
0.000267906
0.000258292
0.0002463
0.00027149
0.000129233
0.000337239
0.000732269
0.000390312
0.000708254
0.00118299
0.00185407
0.00905418
0.00119787
0.00113017
0.00106232
0.00099828
0.000938821
0.000882303
0.000829751
0.000780906
0.000735351
0.000693055
0.000653614
0.000616783
0.000582421
0.000550289
0.000520202
0.000491159
0.000461296
0.000431366
0.000403042
0.000378015
0.000357346
0.000328934
0.000281427
0.000146063
6.73318e-05
5.0605e-05
3.91778e-05
1.64157e-05
0
0.000342038
0.00141939
0.0040848
0.00472377
0.00782809
0.00927214
0.0328618
0.0634415
0.0949725
0.147089
0.00126796
0.00134552
0.00143938
0.00155165
0.00167353
0.0017947
0.00189673
0.0019502
0.00192624
0.00181941
0.0016576
0.00147647
0.00130056
0.00114152
0.00100306
0.000884853
0.000784963
0.000701087
0.000630885
0.00057197
0.000522195
0.000479362
0.000441287
0.000405196
0.000369773
0.000336748
0.000307666
0.00028275
0.000261335
0.00024309
0.000227104
0.000212197
0.000189196
0.000159505
0.000120957
0.000256978
0.000490861
0.000887813
0.00305122
0.001078
0.00102304
0.000967076
0.000913324
0.000863023
0.000814448
0.000768598
0.000725527
0.00068482
0.000646607
0.000610748
0.000577127
0.000545824
0.000516878
0.000490284
0.000466269
0.000445434
0.000427046
0.000409436
0.00039175
0.000375154
0.000361652
0.000347788
0.000321118
0.000274679
0.000216481
0.000154566
5.90242e-05
4.65932e-05
2.40548e-05
0
0
0.00183442
0.00426756
0.00314329
0.00933442
0.0223888
0.0600199
0.113713
0.00113416
0.0011949
0.00126675
0.00134958
0.00143522
0.00151682
0.00158391
0.00161834
0.00160398
0.00153806
0.00143333
0.00130852
0.00117922
0.00105522
0.000941624
0.000840227
0.000751089
0.000673577
0.00060665
0.000548945
0.000499116
0.000455657
0.000416889
0.00038064
0.000345594
0.000312733
0.000283367
0.000257863
0.000235858
0.000217308
0.000202904
0.000193306
0.000187899
0.00018058
0.000153794
8.37458e-05
3.60447e-05
9.07322e-06
0.000547202
0.000977827
0.000933802
0.00088829
0.000844182
0.000802716
0.000762326
0.000724035
0.000687891
0.000653537
0.0006211
0.000590371
0.000561235
0.000533669
0.000507585
0.000482916
0.000459671
0.000437356
0.000415156
0.00039351
0.00037334
0.000355651
0.000341446
0.000331755
0.000325056
0.000315014
0.000295629
0.00026855
0.000233613
0.00019066
9.70165e-05
4.69417e-05
1.74847e-05
0
0
0.00117954
0.00570961
0.00808847
0.0256749
0.0777889
0.00102199
0.00106897
0.00112371
0.00118533
0.00124697
0.00130411
0.00135061
0.0013741
0.001365
0.00132217
0.00125169
0.00116394
0.00106856
0.000972747
0.000881236
0.000796637
0.000720032
0.000651804
0.000591709
0.00053905
0.000492886
0.000452081
0.000415269
0.000380773
0.000347584
0.000316411
0.000288227
0.000263214
0.000240866
0.000220746
0.000202766
0.000186686
0.00017226
0.000159218
0.000149493
0.000137569
0.000118726
4.12085e-05
0.000148929
0.000888027
0.000852341
0.000814944
0.000778261
0.000743595
0.000709479
0.000676838
0.000645776
0.000615974
0.000587549
0.000560371
0.000534333
0.00050945
0.000485693
0.00046309
0.000441626
0.000421372
0.000402659
0.000385342
0.000369182
0.000354187
0.000340812
0.000329511
0.000319954
0.000310574
0.000299561
0.000286161
0.000272408
0.000258049
0.000232441
0.000202475
7.89478e-05
3.58238e-05
0
0
0
0.00434184
0.00983949
0.0446912
0.000923357
0.000960357
0.00100292
0.0010497
0.00109531
0.00113686
0.00117033
0.00118704
0.00118107
0.00115204
0.00110312
0.00104024
0.000969327
0.000895326
0.000821983
0.000751768
0.000686157
0.00062597
0.000571489
0.000522577
0.000478783
0.000439376
0.000403376
0.000369597
0.000337286
0.000306858
0.000279143
0.000254409
0.000232341
0.000212638
0.000195319
0.000180701
0.000169142
0.000160968
0.000156549
0.000158389
0.0001661
0.000173357
3.4737e-05
0.000809674
0.000780722
0.000750026
0.000719644
0.000690791
0.000662198
0.000634683
0.000608369
0.000582995
0.000558669
0.000535265
0.000512691
0.000490958
0.00047003
0.000449908
0.000430592
0.000412146
0.000394355
0.000377071
0.000360654
0.000345668
0.000332607
0.000321599
0.000311787
0.0003015
0.000289777
0.000277185
0.000265826
0.000257443
0.000250752
0.000245967
0.000224412
0.00015483
4.8333e-05
2.84948e-06
0
0.000113871
0.00204305
0.0218101
0.000837974
0.000867285
0.000900675
0.000936668
0.000971097
0.00100224
0.00102702
0.00103923
0.00103525
0.00101492
0.000980022
0.00093413
0.000880905
0.000823607
0.000765055
0.000707302
0.000651765
0.000599497
0.00055104
0.000506602
0.000466077
0.00042905
0.000394859
0.000362697
0.000331996
0.000303064
0.000276562
0.000252721
0.000231269
0.000211885
0.000194473
0.000179057
0.000165606
0.000154608
0.000146445
0.000145536
0.000146125
0.000192514
0.000127061
0.000740421
0.000716775
0.000691438
0.000666147
0.000642017
0.000617942
0.000594608
0.000572198
0.000550443
0.000529459
0.000509127
0.00048936
0.000470165
0.000451508
0.000433408
0.000415902
0.000399009
0.000382827
0.000367454
0.000352965
0.000339585
0.000327513
0.00031684
0.000307017
0.000296713
0.000284905
0.000272016
0.000259828
0.000250042
0.000243359
0.000239263
0.000240248
0.000232441
0.000200349
1.28887e-05
3.69941e-07
0
0.00161367
0.0112562
0.000763276
0.000786729
0.000813266
0.000841356
0.00086781
0.000891706
0.000910459
0.000919592
0.000916896
0.000902284
0.000876796
0.000842706
0.00080235
0.000757851
0.000711164
0.000663869
0.000617174
0.000572069
0.000529246
0.000489086
0.000451694
0.000416925
0.000384398
0.000353598
0.000324184
0.000296404
0.000270773
0.000247536
0.00022653
0.000207531
0.000190507
0.000175597
0.000163017
0.00015328
0.000146655
0.000146662
0.000147925
0.000179054
0.00020607
0.000679226
0.000659849
0.000638875
0.000617783
0.000597604
0.000577337
0.000557607
0.000538577
0.000520018
0.000502038
0.000484526
0.000467402
0.000450665
0.000434285
0.000418271
0.000402653
0.000387473
0.000372818
0.000358634
0.00034501
0.000332295
0.000320761
0.00031046
0.000300944
0.000291154
0.000280158
0.000268121
0.000256382
0.000246277
0.000238344
0.000232066
0.000229466
0.000230204
0.000237622
0.000201439
4.89936e-05
0
0.000805528
0.00665162
0.000697791
0.000716659
0.000737949
0.000760138
0.000780776
0.000799413
0.000813865
0.000820835
0.000818971
0.000808203
0.000789223
0.000763519
0.000732605
0.000697828
0.000660579
0.000621977
0.00058294
0.00054434
0.000506821
0.000470881
0.000436782
0.000404553
0.000373991
0.000344818
0.000316916
0.000290492
0.000265969
0.000243578
0.000223222
0.000204722
0.000188028
0.000173237
0.00016045
0.000150119
0.000142718
0.000141442
0.000143724
0.000165367
0.000215386
0.000624856
0.000608908
0.000591486
0.000573846
0.000556926
0.000539828
0.000523124
0.000506955
0.000491111
0.000475694
0.000460606
0.000445768
0.000431171
0.000416775
0.000402596
0.000388664
0.00037501
0.000361743
0.000348905
0.00033657
0.000324947
0.000314236
0.000304445
0.000295241
0.000285849
0.000275541
0.000264395
0.00025345
0.000243827
0.000235871
0.000229237
0.000224121
0.000221587
0.000224245
0.000240326
0.00019262
1.43734e-05
0.000433809
0.00377241
0.000640021
0.000655299
0.000672506
0.000690227
0.00070654
0.000721264
0.000732562
0.000737959
0.000736637
0.000728554
0.000714171
0.000694498
0.000670558
0.000643245
0.000613445
0.000581954
0.000549446
0.000516605
0.000483991
0.000452076
0.000421194
0.000391487
0.00036292
0.000335415
0.000308986
0.00028386
0.000260382
0.000238781
0.000219023
0.000200987
0.000184653
0.000170148
0.000157641
0.000147582
0.000140446
0.000138918
0.000141322
0.000158666
0.000206038
0.000576369
0.000563193
0.000548686
0.000533906
0.000519702
0.000505282
0.000491138
0.000477407
0.000463905
0.000450716
0.000437762
0.000424952
0.000412288
0.000399732
0.000387279
0.000374956
0.00036279
0.000350888
0.000339288
0.000328026
0.000317272
0.000307259
0.000297992
0.000289202
0.000280288
0.000270664
0.000260365
0.000250209
0.000241174
0.000233594
0.000227281
0.000222058
0.00021834
0.000216516
0.000221191
0.00025513
3.93834e-05
0.000122369
0.00181408
0.000588793
0.000601239
0.000615227
0.000629507
0.000642551
0.000654291
0.0006632
0.000667455
0.000666484
0.000660298
0.000649217
0.000633974
0.00061526
0.000593646
0.000569748
0.000544065
0.00051705
0.000489229
0.000461049
0.000432919
0.000405161
0.000377995
0.000351502
0.000325753
0.000300873
0.000277093
0.000254729
0.000233997
0.000214911
0.000197399
0.000181456
0.00016721
0.0001548
0.00014465
0.000137241
0.000135178
0.000137086
0.000152684
0.000194922
0.000532936
0.000522011
0.00050991
0.000497497
0.000485559
0.000473396
0.000461412
0.000449755
0.000438259
0.000426992
0.000415889
0.000404868
0.000393911
0.000382984
0.000372071
0.000361202
0.000350408
0.000339758
0.000329335
0.00031917
0.00030935
0.0003001
0.000291424
0.000283106
0.000274692
0.000265723
0.000256199
0.000246764
0.000238257
0.000231042
0.00022503
0.000220159
0.000216452
0.000214969
0.000210563
0.0002402
0.00019779
7.45664e-06
8.10085e-05
0.000543134
0.000553324
0.000564762
0.000576346
0.000586868
0.000596291
0.000603382
0.000606759
0.000606026
0.000601207
0.000592551
0.000580583
0.000565804
0.000548591
0.000529335
0.000508367
0.000485963
0.00046247
0.000438225
0.000413563
0.000388792
0.000364144
0.000339752
0.000315758
0.000292404
0.000269968
0.000248723
0.000228872
0.000210468
0.000193487
0.000177944
0.000163975
0.000151736
0.000141645
0.000134163
0.000131728
0.000133155
0.000146874
0.00018467
0.000493862
0.000484791
0.000474677
0.000464237
0.000454208
0.000443942
0.000433799
0.000423915
0.000414142
0.000404541
0.000395049
0.000385583
0.000376137
0.000366664
0.000357161
0.000347635
0.000338114
0.000328644
0.000319332
0.000310181
0.000301243
0.000292722
0.000284644
0.000276842
0.000268957
0.000260632
0.000251852
0.000243119
0.000235133
0.00022827
0.000222506
0.000217883
0.000214342
0.000213138
0.00021048
0.000216009
0.000253658
2.32164e-05
1.77788e-05
0.000502266
0.000510621
0.000520024
0.000529471
0.000538021
0.000545623
0.000551292
0.000553984
0.0005534
0.000549581
0.000542721
0.000533227
0.000521452
0.000507638
0.000492059
0.000474886
0.000456298
0.000436504
0.000415732
0.00039423
0.000372249
0.000350015
0.000327688
0.000305483
0.000283687
0.000262607
0.000242495
0.000223553
0.000205864
0.00018944
0.000174316
0.000160634
0.000148543
0.000138444
0.000130786
0.000127884
0.000128837
0.00014084
0.000174931
0.000458576
0.000451038
0.000442568
0.000433791
0.00042536
0.000416698
0.000408121
0.000399755
0.000391454
0.000383284
0.000375187
0.000367085
0.000358974
0.000350804
0.000342559
0.000334246
0.000325883
0.000317508
0.000309221
0.000301032
0.000292963
0.000285174
0.000277713
0.000270457
0.000263124
0.000255428
0.000247355
0.000239295
0.00023183
0.000225324
0.000219811
0.000215351
0.000212016
0.000210333
0.000210967
0.000204978
0.000254966
6.9416e-05
2.23406e-06
0.000465525
0.000472394
0.000480136
0.000487876
0.00049486
0.000501011
0.000505557
0.000507705
0.000507214
0.000504134
0.000498628
0.000491001
0.000481522
0.000470364
0.000457686
0.000443593
0.000428154
0.000411499
0.000393752
0.000375086
0.000355689
0.000335746
0.000315426
0.000294975
0.000274726
0.000254984
0.00023601
0.000217992
0.000201034
0.000185183
0.000170491
0.000157101
0.000145168
0.000135081
0.000127269
0.000123916
0.000124404
0.000134807
0.000165469
0.0004266
0.00042033
0.000413231
0.000405856
0.000398766
0.000391469
0.000384224
0.000377152
0.000370122
0.000363192
0.000356307
0.000349402
0.000342458
0.000335433
0.00032831
0.000321089
0.000313787
0.000306423
0.000299088
0.000291798
0.00028456
0.000277479
0.000270637
0.000263946
0.000257174
0.000250096
0.000242698
0.000235286
0.000228341
0.000222205
0.000216959
0.000212656
0.000209499
0.000207466
0.000208884
0.000203701
0.000233211
0.000181485
2.97636e-05
0.000432349
0.000438004
0.000444392
0.000450749
0.000456476
0.000461457
0.000465109
0.000466812
0.000466372
0.000463842
0.000459363
0.000453173
0.000445477
0.000436387
0.000426016
0.0004144
0.000401556
0.00038754
0.000372408
0.000356251
0.000339208
0.000321428
0.000303051
0.000284307
0.000265552
0.000247137
0.000229301
0.00021222
0.000196012
0.000180749
0.000166501
0.00015341
0.000141633
0.00013154
0.000123545
0.000119717
0.00011974
0.000128757
0.00015625
0.000397524
0.000392301
0.000386362
0.000380159
0.000374213
0.00036807
0.000361969
0.000356002
0.000350065
0.000344203
0.000338368
0.000332495
0.000326574
0.000320559
0.000314438
0.0003082
0.000301856
0.000295423
0.000288963
0.000282511
0.000276059
0.000269666
0.000263441
0.00025732
0.000251112
0.000244635
0.000237881
0.00023109
0.000224659
0.000218901
0.000213933
0.000209815
0.000206769
0.00020475
0.000205352
0.000204328
0.000213657
0.000225369
0.00010501
0.000402276
0.00040693
0.000412203
0.000417439
0.000422133
0.000426173
0.000429101
0.000430441
0.000430023
0.000427911
0.000424218
0.000419135
0.000412827
0.000405366
0.000396824
0.000387212
0.000376501
0.000364694
0.000351802
0.000337862
0.00032294
0.000307138
0.000290578
0.00027349
0.000256222
0.000239112
0.000222396
0.000206249
0.000190798
0.000176133
0.000162337
0.000149547
0.000137928
0.000127824
0.000119635
0.000115326
0.000114886
0.00012269
0.00014728
0.000370995
0.00036665
0.000361685
0.000356477
0.000351497
0.000346343
0.000341213
0.000336199
0.000331199
0.000326258
0.000321332
0.000316362
0.000311339
0.000306221
0.000300985
0.000295625
0.000290143
0.000284553
0.000278889
0.00027321
0.000267499
0.000261773
0.000256149
0.000250592
0.000244942
0.000239051
0.000232911
0.000226715
0.000220788
0.000215413
0.000210726
0.000206811
0.000203842
0.000201975
0.000201655
0.000203176
0.000203503
0.000225333
0.000177222
0.000374918
0.00037874
0.000383095
0.000387415
0.000391249
0.000394523
0.000396864
0.000397896
0.000397483
0.000395686
0.000392601
0.000388383
0.00038316
0.000376991
0.000369914
0.000361917
0.000352956
0.000343
0.000332013
0.000319994
0.000306971
0.000292992
0.000278137
0.000262619
0.000246774
0.000230927
0.000215312
0.000200095
0.000185407
0.000171349
0.000158012
0.000145529
0.000134066
0.000123941
0.00011554
0.000110735
0.00010983
0.00011662
0.00013861
0.000346716
0.000343112
0.000338966
0.000334604
0.000330446
0.000326136
0.000321837
0.000317639
0.000313448
0.000309302
0.000305164
0.00030098
0.000296738
0.000292401
0.000287946
0.000283367
0.000278656
0.000273826
0.000268899
0.00026394
0.000258917
0.000253829
0.000248787
0.000243781
0.000238678
0.00023335
0.000227796
0.000222166
0.00021673
0.00021174
0.000207339
0.000203633
0.000200746
0.00019898
0.000198168
0.000200135
0.000199219
0.000212601
0.000206555
0.000349947
0.000353078
0.000356672
0.000360235
0.000363356
0.000365995
0.000367857
0.000368635
0.000368215
0.000366657
0.00036404
0.000360496
0.000356133
0.000350988
0.000345086
0.000338398
0.000330869
0.000322454
0.000313091
0.000302739
0.000291384
0.000279051
0.000265782
0.000251746
0.000237249
0.000222619
0.000208081
0.000193784
0.000179858
0.00016641
0.000153535
0.00014136
0.000130051
0.000119893
0.000111263
0.00010595
0.000104576
0.000110527
0.000130226
0.000324435
0.000321453
0.000318007
0.00031436
0.000310907
0.000307316
0.000303731
0.000300234
0.000296739
0.000293279
0.000289821
0.000286316
0.000282757
0.000279104
0.000275341
0.000271452
0.000267434
0.000263293
0.000259037
0.000254728
0.000250338
0.000245854
0.000241371
0.000236896
0.000232323
0.000227539
0.00022254
0.000217451
0.000212491
0.000207882
0.00020377
0.000200274
0.000197493
0.000195749
0.000194774
0.000196164
0.000196363
0.000201077
0.000209326
0.00032709
0.000329637
0.000332598
0.000335529
0.00033806
0.000340176
0.00034164
0.000342201
0.000341765
0.000340385
0.000338142
0.000335134
0.00033145
0.000327119
0.000322157
0.000316535
0.000310184
0.000303047
0.000295051
0.000286135
0.000276256
0.000265394
0.000253565
0.000240905
0.000227696
0.000214239
0.00020074
0.000187343
0.000174169
0.000161328
0.000148917
0.000137053
0.000125893
0.00011569
0.000106809
0.00010097
9.91328e-05
0.00010442
0.000122144
0.000303934
0.00030148
0.000298623
0.00029559
0.000292739
0.000289763
0.000286793
0.000283896
0.000281002
0.000278134
0.000275266
0.000272354
0.00026939
0.000266336
0.000263178
0.0002599
0.000256495
0.000252967
0.000249318
0.000245599
0.000241793
0.000237878
0.000233924
0.000229957
0.000225893
0.000221626
0.000217153
0.000212576
0.000208076
0.000203843
0.000200022
0.000196732
0.000194069
0.000192311
0.00019129
0.000191947
0.00019294
0.000193199
0.000202158
0.000306107
0.000308168
0.000310596
0.000312997
0.000315034
0.000316717
0.000317846
0.000318224
0.000317767
0.000316527
0.00031457
0.000311986
0.000308844
0.000305171
0.000300973
0.000296211
0.000290826
0.000284754
0.000277911
0.000270222
0.000261627
0.000252078
0.000241559
0.000230174
0.00021817
0.000205825
0.000193321
0.000180797
0.000168363
0.000156126
0.000144179
0.000132625
0.000121608
0.000111348
0.000102194
9.58036e-05
9.34951e-05
9.82983e-05
0.000114382
0.00028503
0.00028302
0.000280665
0.00027816
0.000275817
0.000273371
0.000270927
0.000268549
0.000266169
0.000263813
0.000261454
0.000259055
0.000256605
0.000254076
0.00025145
0.00024871
0.000245851
0.000242871
0.00023977
0.000236587
0.000233313
0.000229929
0.000226473
0.000222988
0.000219403
0.000215625
0.000211647
0.000207555
0.000203493
0.000199629
0.000196096
0.000193014
0.000190472
0.000188699
0.000187622
0.00018771
0.00018871
0.000187445
0.000193216
0.000286791
0.000288452
0.000290428
0.000292384
0.000294009
0.000295328
0.000296178
0.000296396
0.000295915
0.000294781
0.000293055
0.000290811
0.000288107
0.000284958
0.000281372
0.000277316
0.000272726
0.000267538
0.000261666
0.000255028
0.000247549
0.00023916
0.000229821
0.000219601
0.000208713
0.000197406
0.000185858
0.000174177
0.000162468
0.000150827
0.00013934
0.000128095
0.00011722
0.000106891
9.74359e-05
9.04579e-05
8.76699e-05
9.21535e-05
0.000106929
0.000267557
0.000265924
0.000263997
0.000261945
0.000260038
0.000258045
0.000256053
0.00025412
0.000252185
0.00025027
0.000248352
0.000246397
0.000244395
0.000242322
0.000240158
0.000237893
0.000235516
0.000233022
0.000230413
0.000227711
0.000224925
0.000222024
0.000219029
0.000215994
0.000212864
0.000209547
0.000206035
0.000202399
0.000198756
0.000195247
0.000191997
0.000189121
0.000186701
0.000184926
0.000183763
0.000183455
0.000184004
0.000182313
0.000184952
0.000268972
0.000270294
0.00027189
0.000273472
0.00027475
0.000275762
0.000276379
0.000276464
0.000275957
0.000274905
0.000273362
0.000271386
0.000269029
0.000266311
0.000263229
0.000259746
0.00025581
0.000251356
0.000246302
0.000240555
0.000234038
0.000226667
0.000218384
0.000209226
0.000199374
0.000189042
0.000178395
0.000167521
0.000156514
0.000145456
0.000134424
0.000123488
0.000112751
0.000102344
9.25554e-05
8.49389e-05
8.16487e-05
8.60016e-05
9.98103e-05
0.000251373
0.000250064
0.000248501
0.000246834
0.000245302
0.000243696
0.000242093
0.000240541
0.000238992
0.000237456
0.000235919
0.000234347
0.000232735
0.000231057
0.000229298
0.000227448
0.000225494
0.000223432
0.00022126
0.000218991
0.000216643
0.000214188
0.00021162
0.000209006
0.000206297
0.000203409
0.00020033
0.000197118
0.000193872
0.000190706
0.000187732
0.000185058
0.000182762
0.000180988
0.000179729
0.000179112
0.000179096
0.000177148
0.000177534
0.000252498
0.000253534
0.000254805
0.000256073
0.000257061
0.000257814
0.000258237
0.000258206
0.000257675
0.000256686
0.000255289
0.000253532
0.00025146
0.000249087
0.000246414
0.000243405
0.000240009
0.000236164
0.000231794
0.00022681
0.000221122
0.00021464
0.000207289
0.000199086
0.000190179
0.000180759
0.000170957
0.000160855
0.000150526
0.000140039
0.000129458
0.000118831
0.000108229
9.77355e-05
8.75835e-05
7.92588e-05
7.54241e-05
7.98451e-05
9.30232e-05
0.000236356
0.000235321
0.000234072
0.000232733
0.000231521
0.000230249
0.000228978
0.000227756
0.000226536
0.00022533
0.00022412
0.000222879
0.000221604
0.000220269
0.000218864
0.000217375
0.000215791
0.00021411
0.000212326
0.000210446
0.000208491
0.000206435
0.000204264
0.000202036
0.000199715
0.000197224
0.000194546
0.00019173
0.000188856
0.000186017
0.000183311
0.000180832
0.000178658
0.000176898
0.000175538
0.000174656
0.000174121
0.000171847
0.000170656
0.000237237
0.000238032
0.000239029
0.00024003
0.000240774
0.000241308
0.000241566
0.000241439
0.000240886
0.000239946
0.000238665
0.000237086
0.000235247
0.000233159
0.000230818
0.000228198
0.000225248
0.000221916
0.00021812
0.000213779
0.000208805
0.0002031
0.000196575
0.000189234
0.000181189
0.000172607
0.000163597
0.000154224
0.000144544
0.000134614
0.000124476
0.000114157
0.000103693
9.3111e-05
8.2562e-05
7.34334e-05
6.89799e-05
7.37026e-05
8.6589e-05
0.000222399
0.000221595
0.000220616
0.000219556
0.000218619
0.000217633
0.000216647
0.00021571
0.000214771
0.000213848
0.00021292
0.000211966
0.000210979
0.000209943
0.000208842
0.000207666
0.000206409
0.00020506
0.00020362
0.000202086
0.000200485
0.000198786
0.000196974
0.000195097
0.000193132
0.000191007
0.000188699
0.00018625
0.000183721
0.000181191
0.000178742
0.000176457
0.000174396
0.000172659
0.000171208
0.000170087
0.000169103
0.000166475
0.000164122
0.00022307
0.000223664
0.000224431
0.000225204
0.000225743
0.000226097
0.000226214
0.000226005
0.000225432
0.000224531
0.000223345
0.000221911
0.000220261
0.000218407
0.000216343
0.000214044
0.000211466
0.000208557
0.000205246
0.000201453
0.000197088
0.000192057
0.000186262
0.000179688
0.000172426
0.000164613
0.000156339
0.000147654
0.000138597
0.000129207
0.000119508
0.000109502
9.91879e-05
8.85222e-05
7.75482e-05
6.74876e-05
6.22819e-05
6.75982e-05
8.05243e-05
0.000209403
0.000208798
0.000208047
0.000207228
0.000206524
0.000205782
0.000205043
0.000204348
0.000203652
0.000202971
0.000202286
0.000201577
0.000200842
0.000200062
0.000199225
0.000198324
0.000197348
0.000196292
0.000195152
0.000193926
0.000192635
0.000191257
0.000189767
0.000188212
0.000186569
0.000184773
0.000182803
0.000180691
0.000178483
0.000176242
0.000174036
0.000171937
0.000169994
0.000168277
0.000166754
0.000165408
0.000164039
0.000161082
0.000157842
0.000209896
0.000210324
0.000210896
0.000211474
0.000211842
0.000212046
0.000212045
0.000211766
0.000211176
0.000210308
0.000209202
0.000207886
0.000206393
0.000204731
0.000202897
0.000200865
0.000198596
0.000196043
0.00019314
0.000189811
0.000185972
0.000181525
0.00017637
0.00017048
0.00016392
0.000156813
0.000149222
0.000141185
0.000132722
0.000123856
0.000114594
0.000104908
9.47591e-05
8.4028e-05
7.26163e-05
6.14634e-05
5.52747e-05
6.15855e-05
7.48617e-05
0.000197285
0.000196851
0.000196292
0.00019568
0.000195177
0.000194642
0.000194115
0.000193626
0.00019314
0.000192666
0.00019219
0.000191692
0.000191172
0.000190611
0.000190003
0.000189336
0.000188606
0.000187804
0.000186928
0.000185971
0.000184955
0.000183859
0.000182659
0.000181391
0.000180038
0.000178541
0.000176878
0.000175071
0.000173158
0.000171186
0.00016921
0.000167287
0.000165458
0.00016377
0.000162183
0.000160645
0.000158945
0.000155713
0.0001518
0.00019763
0.000197917
0.000198327
0.000198737
0.000198963
0.000199041
0.000198943
0.000198605
0.000198001
0.000197161
0.000196119
0.000194906
0.000193545
0.000192042
0.000190397
0.000188588
0.000186578
0.000184326
0.000181768
0.000178834
0.000175445
0.000171503
0.00016691
0.000161628
0.000155705
0.000149237
0.000142279
0.000134847
0.000126951
0.000118595
0.000109767
0.000100415
9.04581e-05
7.97024e-05
6.78723e-05
5.54452e-05
4.7858e-05
5.57567e-05
6.96481e-05
0.000185972
0.00018568
0.000185287
0.000184851
0.000184517
0.000184162
0.000183813
0.000183503
0.000183195
0.000182898
0.0001826
0.000182283
0.000181946
0.000181575
0.000181161
0.000180699
0.000180181
0.000179598
0.00017895
0.000178229
0.000177454
0.000176607
0.000175664
0.000174652
0.000173556
0.000172327
0.00017094
0.000169409
0.000167764
0.000166039
0.000164277
0.000162522
0.000160802
0.000159149
0.000157511
0.000155816
0.000153832
0.000150372
0.000145977
0.00018619
0.000186358
0.000186633
0.000186904
0.00018701
0.000186984
0.000186805
0.00018642
0.000185806
0.000184989
0.000184005
0.000182874
0.000181622
0.000180257
0.000178773
0.000177151
0.000175358
0.000173358
0.000171093
0.000168497
0.000165494
0.000161993
0.000157892
0.000153147
0.000147796
0.000141912
0.000135538
0.000128673
0.000121317
0.000113457
0.000105065
9.60685e-05
8.63439e-05
7.5629e-05
6.34528e-05
4.9602e-05
3.98214e-05
5.02867e-05
6.49399e-05
0.000175395
0.000175225
0.000174971
0.000174684
0.000174495
0.000174292
0.000174096
0.000173936
0.000173781
0.000173635
0.000173488
0.000173326
0.000173145
0.000172936
0.00017269
0.000172402
0.000172064
0.000171671
0.00017122
0.000170706
0.00017014
0.000169511
0.000168793
0.000168005
0.000167138
0.000166145
0.000165003
0.000163721
0.000162318
0.000160819
0.000159254
0.000157656
0.000156043
0.000154427
0.000152754
0.000150927
0.000148718
0.00014509
0.000140358
0.000175507
0.000175577
0.000175737
0.000175892
0.000175898
0.000175787
0.000175542
0.00017512
0.000174499
0.000173705
0.000172768
0.000171711
0.000170553
0.000169302
0.000167954
0.00016649
0.000164884
0.000163099
0.000161082
0.000158776
0.000156108
0.000152988
0.000149319
0.000145052
0.000140212
0.000134861
0.000129023
0.000122691
0.000115849
0.000108477
0.000100527
9.19083e-05
8.24698e-05
7.18921e-05
5.95262e-05
4.429e-05
3.07217e-05
4.54802e-05
6.08087e-05
0.000165496
0.000165428
0.000165291
0.000165132
0.000165065
0.00016499
0.000164925
0.000164893