/*--------------------------------*- C++ -*----------------------------------*\
| =========                 |                                                 |
| \\      /  F ield         | OpenFOAM: The Open Source CFD Toolbox           |
|  \\    /   O peration     | Version:  2312                                  |
|   \\  /    A nd           | Website:  www.openfoam.com                      |
|    \\/     M anipulation  |                                                 |
\*---------------------------------------------------------------------------*/
FoamFile
{
    version     2.0;
    format      ascii;
    arch        "LSB;label=32;scalar=64";
    class       volVectorField;
    location    "200";
    object      U;
}
// * * * * * * * * * * * * * * * * * * * * * * * * * * * * * * * * * * * * * //

dimensions      [0 1 -1 0 0 0 0];

internalField   nonuniform List<vector> 
10720
(
(0.240828 27.5538 1.40922e-17)
(1.97231 29.8499 -1.29621e-17)
(4.13892 32.069 0)
(6.63048 33.8043 -3.98525e-16)
(9.38091 35.1379 4.44983e-16)
(12.3221 36.0276 3.25028e-16)
(15.2994 36.3749 4.51723e-16)
(18.2171 36.2142 0)
(20.9902 35.6099 0)
(23.536 34.5972 0)
(25.8175 33.2698 1.21044e-16)
(27.7897 31.6804 0)
(29.4046 29.8244 2.44115e-15)
(30.6457 27.7414 0)
(31.4709 25.4468 0)
(31.8529 22.9717 0)
(31.723 20.3178 -4.42026e-15)
(31.0065 17.5213 -6.84391e-15)
(29.5726 14.595 6.39562e-15)
(27.2989 11.603 0)
(24.0463 8.60914 6.33044e-15)
(19.8668 5.77031 -1.45658e-14)
(15.258 3.32528 8.99481e-15)
(11.8217 1.52644 -3.27364e-16)
(10.4381 0.325917 0)
(11.0467 -0.323404 4.53065e-15)
(12.4424 -0.590205 5.87985e-17)
(13.9326 -0.727487 -1.38697e-15)
(15.1643 -0.887792 -4.49852e-15)
(15.9781 -1.10695 -1.48985e-14)
(16.3991 -1.36881 6.21719e-15)
(16.517 -1.64318 1.07428e-14)
(16.2974 -1.89073 8.76621e-15)
(15.7772 -2.08807 2.87407e-14)
(14.9409 -2.21061 -1.1193e-14)
(13.7888 -2.24312 -7.73579e-17)
(11.9516 -2.10558 2.2494e-17)
(9.93284 -1.85342 2.88406e-15)
(3.88325 -1.14034 1.27444e-14)
(-1.12359 25.1042 -9.21778e-19)
(-2.22355 22.3453 -1.37623e-17)
(-2.98283 19.2411 5.9227e-17)
(-3.27912 15.6491 -1.71315e-16)
(-2.95278 11.9389 -5.75196e-16)
(-1.97497 8.24777 1.02608e-15)
(-0.436784 4.88995 5.40477e-15)
(1.41103 2.13798 3.18205e-15)
(3.37289 -0.191398 0)
(5.60649 -2.20661 0)
(7.89961 -3.69999 2.10243e-15)
(10.0123 -4.65938 7.65426e-16)
(11.8801 -5.21299 -1.27471e-15)
(13.5144 -5.48442 1.04839e-15)
(14.9396 -5.57028 1.72987e-15)
(16.187 -5.5336 1.11499e-15)
(17.2875 -5.42187 1.41966e-15)
(18.2735 -5.26388 9.41852e-16)
(19.1762 -5.07903 0)
(20.0173 -4.87001 0)
(20.8149 -4.6383 -1.29242e-15)
(21.5798 -4.37437 -5.86728e-17)
(22.3134 -4.0642 8.60136e-16)
(22.9847 -3.68275 -5.848e-16)
(23.526 -3.23007 2.73084e-17)
(23.9199 -2.74981 0)
(24.1969 -2.28147 7.55948e-17)
(24.3933 -1.78104 0)
(24.5244 -1.18237 0)
(24.5902 -0.513266 -1.07286e-17)
(24.57 0.160332 0)
(24.4495 0.790582 1.20271e-16)
(24.2298 1.35494 1.66308e-16)
(23.9195 1.84704 4.75926e-16)
(23.5186 2.26916 1.18291e-16)
(23.0234 2.62919 -1.08079e-18)
(22.3312 2.92855 0)
(21.3775 3.1355 4.10674e-15)
(18.7637 3.31256 7.84805e-15)
(7.14331 23.9134 -8.4435e-18)
(9.02764 25.6406 -2.76898e-20)
(11.3245 27.206 0)
(13.9734 28.5046 0)
(16.8286 29.4767 -1.30743e-16)
(19.8949 30.0622 -3.11907e-16)
(23.0599 30.2142 0)
(26.1912 29.9538 0)
(29.2351 29.2908 6.69249e-16)
(32.1084 28.2764 0)
(34.7555 26.9642 2.47621e-15)
(37.1679 25.4483 0)
(39.3547 23.8216 8.81945e-16)
(41.3277 22.1175 -8.66055e-16)
(43.0762 20.3661 1.73708e-15)
(44.5589 18.6058 -3.45178e-15)
(45.7575 16.8602 3.65993e-15)
(46.6359 15.1582 3.32677e-15)
(47.1358 13.5071 3.23225e-15)
(47.1489 11.9129 1.963e-16)
(46.4905 10.3298 -3.35885e-15)
(44.9397 8.6667 3.29466e-15)
(42.3612 6.78911 -1.97686e-16)
(38.9354 4.75074 0)
(35.4859 2.87401 0)
(32.3821 1.36076 0)
(29.6018 0.253445 1.92457e-16)
(27.2053 -0.544969 -4.21977e-17)
(25.302 -1.15478 2.59442e-15)
(23.8895 -1.63549 2.727e-17)
(22.8135 -2.01235 -2.0362e-17)
(21.8602 -2.30384 -7.71513e-17)
(20.9222 -2.53153 5.28507e-15)
(19.9069 -2.70262 -8.46348e-15)
(18.7239 -2.80364 -4.37255e-17)
(17.3349 -2.81725 -8.98414e-15)
(15.3779 -2.67624 0)
(13.2906 -2.41032 -6.98925e-16)
(7.2856 -1.52274 5.75498e-15)
(5.55443 22.0743 1.1153e-17)
(4.17552 20.0304 -5.02859e-17)
(2.96883 17.638 -6.08603e-16)
(2.05546 14.9199 7.54703e-16)
(1.61531 11.9652 0)
(1.73727 8.9141 -1.64806e-15)
(2.44147 5.98004 -1.24294e-15)
(3.62972 3.38585 -9.55818e-15)
(5.12509 1.09368 2.73717e-15)
(6.89153 -0.797705 -1.98253e-15)
(8.78511 -2.15569 2.44505e-15)
(10.633 -3.03792 -6.86428e-16)
(12.3549 -3.57116 0)
(13.9269 -3.85436 -4.49169e-16)
(15.3432 -3.96862 5.99184e-17)
(16.6155 -3.96627 -9.91437e-16)
(17.7605 -3.89156 0)
(18.802 -3.76945 0)
(19.7642 -3.61769 -1.0193e-16)
(20.6699 -3.43344 9.82458e-17)
(21.5347 -3.21432 -1.1533e-15)
(22.3707 -2.9429 -1.2395e-16)
(23.1798 -2.59773 5.43524e-17)
(23.9395 -2.13839 5.88617e-16)
(24.5975 -1.57229 -3.9961e-16)
(25.1279 -0.963282 -2.83253e-16)
(25.5414 -0.335595 0)
(25.8322 0.275085 0)
(25.9925 0.822748 0)
(26.0247 1.29015 9.65518e-18)
(25.9581 1.68554 0)
(25.8193 2.03181 0)
(25.6184 2.34855 -2.45844e-16)
(25.3565 2.64423 -1.37404e-16)
(25.0243 2.92226 -9.69603e-17)
(24.6229 3.18553 4.73303e-16)
(24.0528 3.43112 -1.81411e-15)
(23.4884 3.65002 -3.21824e-15)
(21.5045 3.71698 -5.40313e-15)
(8.3059 22.0287 -1.80606e-18)
(9.64338 23.5545 8.26511e-18)
(11.2714 25.0411 -7.67587e-18)
(13.143 26.416 -3.75698e-17)
(15.2062 27.5608 -1.71162e-16)
(17.4601 28.4522 5.99209e-16)
(19.8305 29.0512 -4.2033e-16)
(22.243 29.3201 -4.96686e-16)
(24.6407 29.2589 8.8854e-18)
(26.9656 28.8794 -6.55027e-16)
(29.1647 28.2017 6.12924e-16)
(31.2039 27.2509 -1.59629e-15)
(33.0558 26.0567 -7.59933e-16)
(34.7037 24.6514 0)
(36.1442 23.0696 -1.84502e-15)
(37.4353 21.3222 3.69107e-15)
(38.6079 19.4386 0)
(39.6808 17.4739 -6.94693e-15)
(40.7129 15.4764 -3.43759e-15)
(41.7474 13.5189 3.96303e-16)
(42.8456 11.6426 -3.81691e-16)
(43.9344 9.84139 -1.7355e-16)
(44.7437 7.98428 -2.45425e-15)
(44.841 5.98761 1.27873e-15)
(44.1205 4.00691 0)
(42.822 2.27596 1.22176e-15)
(41.167 0.901151 -1.4586e-16)
(39.2096 -0.182819 0)
(36.9021 -1.07409 1.91985e-15)
(34.2696 -1.80548 3.55098e-15)
(31.5037 -2.37454 -6.16762e-15)
(28.887 -2.78694 -5.16602e-15)
(26.5906 -3.06374 -1.02992e-16)
(24.5665 -3.2276 -6.7903e-15)
(22.6305 -3.29102 -5.20094e-15)
(20.6492 -3.25199 7.06367e-15)
(18.2546 -3.0664 0)
(15.7681 -2.70007 -4.76236e-16)
(10.0111 -1.93471 -8.01005e-15)
(7.21559 20.4218 -1.65064e-17)
(6.25998 18.6678 -6.10999e-17)
(5.46693 16.604 2.44464e-16)
(4.83125 14.2955 0)
(4.50784 11.817 4.66229e-16)
(4.54243 9.23854 0)
(4.96239 6.69823 3.5404e-15)
(5.73556 4.35189 2.07356e-15)
(6.8251 2.25153 1.78844e-15)
(8.18231 0.468253 0)
(9.68032 -0.938971 -2.50605e-15)
(11.1996 -1.99196 -5.28433e-16)
(12.6695 -2.75146 2.37418e-15)
(14.0546 -3.27522 0)
(15.3379 -3.61392 -1.08808e-15)
(16.5175 -3.81089 -3.27301e-16)
(17.6 -3.904 1.34253e-15)
(18.5991 -3.91937 6.932e-16)
(19.5316 -3.87512 1.88956e-16)
(20.4149 -3.77646 -1.03156e-16)
(21.2615 -3.62545 1.05649e-15)
(22.0803 -3.41383 0)
(22.8715 -3.12812 0)
(23.6156 -2.74787 2.65638e-17)
(24.2694 -2.28817 0)
(24.8088 -1.79824 5.90942e-16)
(25.2439 -1.30025 -7.50943e-18)
(25.5882 -0.799105 -3.09106e-17)
(25.8474 -0.291205 0)
(26.0216 0.225261 -2.81638e-20)
(26.1129 0.75004 -1.04659e-17)
(26.1226 1.27262 0)
(26.0508 1.7748 1.10087e-16)
(25.897 2.24099 0)
(25.6518 2.66375 0)
(25.3152 3.04145 4.3101e-17)
(24.7878 3.37578 -6.08264e-17)
(24.1852 3.6279 3.36973e-15)
(22.3791 3.72748 1.08014e-14)
(10.9013 20.1617 -1.32246e-17)
(12.1536 21.4569 -1.1e-17)
(13.6559 22.7188 3.42133e-19)
(15.3851 23.8731 -5.77942e-18)
(17.295 24.8296 0)
(19.392 25.5695 0)
(21.6204 26.0487 -6.9808e-16)
(23.9197 26.2321 8.43359e-16)
(26.2436 26.1119 0)
(28.5371 25.6897 -1.03312e-15)
(30.7491 24.9783 -1.31908e-15)
(32.8403 24.0007 -1.24583e-15)
(34.775 22.7908 1.4928e-15)
(36.5266 21.3856 1.40929e-15)
(38.084 19.8183 0)
(39.4098 18.1392 2.23594e-15)
(40.4573 16.4071 7.65834e-16)
(41.2223 14.6584 6.18054e-15)
(41.7134 12.9299 3.73349e-16)
(41.9767 11.2555 -3.67351e-16)
(42.1056 9.66215 3.107e-15)
(42.247 8.14595 -5.05535e-16)
(42.5063 6.62858 2.78737e-15)
(42.7513 5.02486 1.17958e-15)
(42.6898 3.39829 -7.27411e-17)
(42.2335 1.93044 -1.09851e-15)
(41.5395 0.724466 7.99894e-18)
(40.7595 -0.266263 -8.08186e-18)
(39.8805 -1.13055 -1.78403e-15)
(38.7507 -1.9005 -4.66116e-17)
(37.1844 -2.56162 2.91054e-15)
(35.0662 -3.08673 -4.84513e-15)
(32.4691 -3.45665 -3.80096e-15)
(29.6668 -3.67068 -2.56709e-18)
(26.9005 -3.7405 4.61524e-15)
(24.2241 -3.669 0)
(21.306 -3.43749 3.29677e-15)
(18.3242 -2.95917 3.88676e-16)
(12.5968 -2.25234 3.22009e-15)
(9.85022 18.8069 -2.99789e-17)
(8.90778 17.3385 8.21664e-17)
(8.08628 15.6065 3.54938e-16)
(7.40008 13.6506 0)
(6.97987 11.5406 -4.11348e-16)
(6.86039 9.32519 0)
(7.06758 7.10829 -2.71936e-15)
(7.57521 5.01089 -1.17807e-16)
(8.36149 3.09143 1.28202e-15)
(9.39277 1.41487 1.11848e-15)
(10.5781 0.0333392 3.76468e-17)
(11.8332 -1.04784 1.85722e-15)
(13.0987 -1.86035 -1.19209e-15)
(14.3339 -2.44496 3.77821e-16)
(15.5133 -2.84102 1.28144e-15)
(16.6249 -3.08765 1.4047e-15)
(17.6662 -3.21893 -1.25342e-15)
(18.6413 -3.26186 7.70202e-18)
(19.5601 -3.23608 0)
(20.434 -3.15097 1.29173e-15)
(21.2724 -3.0097 6.26814e-17)
(22.0813 -2.80675 -9.6021e-16)
(22.8601 -2.53082 0)
(23.5921 -2.16434 2.67593e-17)
(24.2415 -1.71298 0)
(24.7844 -1.21428 -2.84272e-16)
(25.2257 -0.691307 0)
(25.5765 -0.155109 2.95016e-17)
(25.8417 0.383796 -7.77897e-19)
(26.024 0.910341 3.83584e-19)
(26.1286 1.40865 1.00704e-17)
(26.162 1.86306 2.28112e-19)
(26.1282 2.27047 0)
(26.0286 2.63402 2.75438e-17)
(25.8535 2.96032 1.05786e-18)
(25.5991 3.25386 -5.73013e-16)
(25.166 3.52268 4.32071e-15)
(24.6316 3.69774 1.07918e-17)
(22.996 3.75913 0)
(12.4345 18.7686 -1.83859e-17)
(13.4875 19.918 -3.86512e-18)
(14.758 21.0606 7.15437e-19)
(16.2114 22.1338 1.2304e-16)
(17.8082 23.0552 -4.6755e-17)
(19.5688 23.82 -1.82946e-16)
(21.4469 24.3888 2.99075e-16)
(23.3953 24.7259 0)
(25.3837 24.8216 1.1913e-15)
(27.3657 24.6689 5.57543e-16)
(29.2999 24.2694 0)
(31.1519 23.6348 1.1994e-15)
(32.8873 22.7841 -6.37156e-16)
(34.4792 21.7386 1.7778e-15)
(35.9068 20.522 0)
(37.1492 19.1585 -2.97455e-15)
(38.2182 17.6438 2.79787e-15)
(39.1085 15.9998 -1.6526e-16)
(39.8125 14.2593 0)
(40.3229 12.4683 3.00728e-15)
(40.6447 10.6664 -3.02108e-15)
(40.8019 8.88574 -1.56487e-16)
(40.8347 7.12095 -2.39552e-15)
(40.7372 5.36743 -2.268e-15)
(40.4223 3.69534 0)
(39.8551 2.22273 0)
(39.1456 1.00425 -2.58561e-16)
(38.4365 -0.008064 -2.86178e-17)
(37.7924 -0.892944 1.76012e-15)
(37.196 -1.68549 -4.62158e-17)
(36.5877 -2.38902 4.59657e-17)
(35.8439 -3.00012 4.73803e-15)
(34.7418 -3.50263 0)
(33.0391 -3.86104 1.22571e-14)
(30.647 -4.037 -4.01112e-17)
(27.7733 -4.00954 0)
(24.4684 -3.77517 -1.71446e-17)
(21.0255 -3.21318 0)
(15.2048 -2.52023 -2.78594e-15)
(11.5448 17.5727 2.98102e-17)
(10.7446 16.2897 -1.87284e-16)
(10.0267 14.7757 -4.41557e-17)
(9.3992 13.0691 8.25046e-16)
(8.97813 11.2345 -1.3023e-15)
(8.78809 9.30049 -1.70091e-15)
(8.85978 7.34269 2.05944e-15)
(9.18421 5.45997 -2.18366e-15)
(9.75189 3.7153 -9.68586e-16)
(10.538 2.16075 -8.53135e-16)
(11.478 0.836561 1.63685e-15)
(12.509 -0.244493 -1.56253e-15)
(13.5834 -1.09992 -6.81146e-16)
(14.6634 -1.75666 6.62388e-16)
(15.7217 -2.2405 -1.43184e-15)
(16.7422 -2.58115 2.63174e-16)
(17.7166 -2.80489 0)
(18.6433 -2.93393 -9.90349e-16)
(19.5264 -2.9849 3.4984e-16)
(20.3725 -2.96755 -1.35484e-15)
(21.188 -2.88527 0)
(21.9764 -2.73481 8.35415e-16)
(22.7359 -2.50801 6.54094e-16)
(23.4516 -2.19404 -4.88879e-16)
(24.0931 -1.79897 0)
(24.637 -1.35472 -3.13046e-16)
(25.0841 -0.886516 0)
(25.4431 -0.407131 0)
(25.7179 0.0740715 0)
(25.9107 0.546974 2.32237e-17)
(26.0249 1.00339 0)
(26.0661 1.44341 0)
(26.0383 1.86706 -1.09433e-17)
(25.9447 2.27077 -2.78033e-17)
(25.7797 2.65147 0)
(25.5455 3.00476 -6.72655e-16)
(25.1555 3.3311 8.44878e-17)
(24.6952 3.55049 0)
(23.314 3.66062 -5.40521e-15)
(13.9248 17.54 2.25846e-17)
(14.8815 18.5572 -1.60365e-17)
(16.0313 19.5742 0)
(17.3421 20.5321 8.99223e-18)
(18.7755 21.358 -1.10364e-16)
(20.3611 22.0524 1.71871e-16)
(22.0589 22.5768 4.65502e-17)
(23.831 22.8993 -7.46705e-16)
(25.6568 23.0066 -9.45427e-17)
(27.4982 22.8874 1.1379e-15)
(29.3198 22.5374 -4.06622e-16)
(31.0921 21.9599 9.23343e-16)
(32.7816 21.1649 4.63945e-16)
(34.3603 20.1673 3.34004e-16)
(35.8037 18.9854 0)
(37.0921 17.6406 -6.43892e-16)
(38.1992 16.172 -1.41279e-15)
(39.0968 14.6303 -5.18405e-15)
(39.7744 13.0554 1.52913e-15)
(40.2385 11.4768 -1.93264e-15)
(40.506 9.91547 -3.0158e-16)
(40.6013 8.3706 0)
(40.5343 6.81364 2.15279e-15)
(40.2797 5.22619 1.39449e-16)
(39.7927 3.66873 -6.48739e-17)
(39.0759 2.2581 -9.25781e-16)
(38.2182 1.06717 2.14983e-16)
(37.3321 0.0741305 4.48836e-16)
(36.4759 -0.785001 -1.67631e-15)
(35.6593 -1.5465 -8.92256e-17)
(34.8895 -2.21858 2.84767e-15)
(34.1913 -2.80565 4.58132e-15)
(33.5567 -3.31174 0)
(32.8732 -3.73226 -1.95488e-17)
(31.8343 -4.03577 -4.65182e-15)
(30.0595 -4.14747 0)
(27.2326 -4.00419 -6.05073e-15)
(23.7307 -3.4314 0)
(17.8606 -2.76527 2.51018e-15)
(13.108 16.4854 -2.9699e-17)
(12.3699 15.3608 7.59323e-17)
(11.6939 14.03 -1.88465e-16)
(11.0897 12.5262 0)
(10.6594 10.9108 5.53182e-16)
(10.4194 9.20223 2.78084e-15)
(10.3966 7.45611 0)
(10.5921 5.75867 -1.56716e-15)
(11.0004 4.1726 -1.49088e-15)
(11.6004 2.7367 1.48918e-15)
(12.3465 1.48363 -5.92138e-17)
(13.1916 0.430289 6.45031e-16)
(14.0993 -0.431794 3.37363e-17)
(15.0377 -1.1192 1.69324e-15)
(15.9809 -1.64773 1.51433e-15)
(16.9118 -2.03868 -1.41937e-15)
(17.8192 -2.312 1.9924e-16)
(18.6969 -2.48593 -3.70582e-16)
(19.5443 -2.57514 1.7163e-16)
(20.3637 -2.58948 9.94908e-16)
(21.1578 -2.53346 1.28778e-16)
(21.9277 -2.40619 -9.23515e-17)
(22.6702 -2.20196 -5.55153e-16)
(23.3714 -1.91329 0)
(24.0051 -1.54457 2.24131e-17)
(24.5491 -1.12115 5.86114e-16)
(25.0006 -0.66644 -2.92439e-18)
(25.3656 -0.192829 2.92805e-18)
(25.6475 0.290694 0)
(25.8477 0.77361 -2.19391e-17)
(25.9696 1.2466 0)
(26.018 1.69984 0)
(25.9968 2.12345 9.51277e-18)
(25.909 2.51139 9.52728e-17)
(25.7487 2.86207 0)
(25.5165 3.1722 6.38799e-16)
(25.1325 3.44743 -4.50209e-15)
(24.6694 3.5934 2.18983e-17)
(23.4459 3.62801 5.16753e-15)
(15.1245 16.5013 4.51929e-19)
(15.9836 17.4147 -1.52189e-17)
(17.0158 18.3355 6.46755e-18)
(18.1871 19.2089 -6.27869e-18)
(19.4595 19.9697 7.57437e-17)
(20.8678 20.6243 0)
(22.3755 21.1394 -3.31297e-16)
(23.9505 21.4858 6.28293e-18)
(25.5805 21.6523 -3.40129e-16)
(27.2329 21.6271 -6.89514e-16)
(28.8794 21.4032 0)
(30.4957 20.9801 -1.67586e-15)
(32.0515 20.3626 -1.44366e-15)
(33.5201 19.5601 -3.52155e-15)
(34.8774 18.5867 0)
(36.0995 17.4617 -2.19072e-15)
(37.1665 16.2058 -2.30146e-15)
(38.0701 14.8287 2.44993e-15)
(38.8013 13.3528 -2.40554e-15)
(39.3558 11.8104 2.23053e-15)
(39.7371 10.2336 2.75371e-16)
(39.9529 8.64832 -2.36816e-15)
(40.0011 7.05778 0)
(39.8478 5.46389 -2.10263e-15)
(39.4459 3.91772 1.26333e-16)
(38.7976 2.51273 9.64379e-16)
(37.9797 1.31194 0)
(37.0899 0.301487 -3.29198e-17)
(36.1778 -0.572799 7.11979e-17)
(35.2455 -1.34378 2.74446e-15)
(34.2922 -2.0181 -2.54655e-15)
(33.3411 -2.59867 -4.41654e-15)
(32.4344 -3.09098 3.72024e-15)
(31.6215 -3.49831 -6.48508e-17)
(30.9036 -3.8188 4.76167e-15)
(30.1289 -4.02125 6.19983e-15)
(28.6004 -4.02576 3.16188e-15)
(25.9577 -3.55034 -8.23397e-18)
(20.4449 -2.97241 -3.08064e-18)
(14.3853 15.5565 1.19773e-17)
(13.7141 14.5554 1.46169e-16)
(13.0872 13.3685 1.96696e-16)
(12.5138 12.0263 -3.75109e-16)
(12.0863 10.5874 -1.49041e-15)
(11.8169 9.06177 4.96061e-16)
(11.73 7.49073 1.25862e-15)
(11.8329 5.95269 3.17218e-15)
(12.1227 4.50813 1.27091e-15)
(12.5813 3.18485 -1.18845e-15)
(13.1749 2.00968 -3.84929e-17)
(13.8678 0.999866 -5.71013e-16)
(14.6322 0.150633 0)
(15.4424 -0.548469 -2.69697e-17)
(16.2755 -1.10682 -9.27356e-16)
(17.1157 -1.53946 4.04286e-16)
(17.9507 -1.86077 -3.97105e-16)
(18.772 -2.08441 0)
(19.5755 -2.22196 6.00536e-16)
(20.3602 -2.2819 -1.04581e-15)
(21.126 -2.26825 0)
(21.8717 -2.18092 7.64656e-16)
(22.5928 -2.01594 0)
(23.2765 -1.76859 -2.84926e-17)
(23.8995 -1.44311 2.84334e-17)
(24.4409 -1.06039 -2.87239e-16)
(24.8949 -0.642389 -5.33027e-18)
(25.2653 -0.202546 -3.02757e-18)
(25.5545 0.248984 6.61446e-19)
(25.7635 0.700998 -3.60493e-17)
(25.8952 1.1427 -4.20723e-17)
(25.9537 1.56615 5.06982e-17)
(25.9426 1.96781 1.14751e-18)
(25.8642 2.34414 3.26346e-17)
(25.7124 2.69364 0)
(25.4867 3.01179 1.37668e-17)
(25.1128 3.29975 2.10977e-15)
(24.6515 3.46153 -1.28458e-17)
(23.5211 3.5027 4.80486e-15)
(16.1796 15.5865 4.51141e-18)
(16.9672 16.4105 2.30171e-17)
(17.9119 17.2448 0)
(18.9801 18.0379 -2.57254e-17)
(20.1335 18.7307 2.45554e-17)
(21.4099 19.3335 0)
(22.7761 19.8153 -1.22372e-16)
(24.2045 20.1502 9.66298e-16)
(25.6881 20.328 -1.34581e-15)
(27.2002 20.3362 4.2915e-16)
(28.7176 20.1658 5.87051e-16)
(30.221 19.8129 2.12838e-15)
(31.6843 19.2776 1.52739e-15)
(33.0831 18.5633 1.82572e-15)
(34.3941 17.6785 4.8391e-16)
(35.5936 16.6357 1.60571e-15)
(36.6613 15.4506 2.21168e-15)
(37.5756 14.1517 2.10156e-15)
(38.3185 12.7742 -1.54199e-15)
(38.8837 11.3469 -4.71186e-15)
(39.2744 9.89376 0)
(39.5004 8.42821 8.68021e-17)
(39.5654 6.94996 1.86802e-15)
(39.4483 5.45999 2.00156e-15)
(39.1106 3.99916 -1.15592e-16)
(38.5456 2.64772 -8.58935e-16)
(37.8103 1.46808 6.17403e-18)
(36.9868 0.459639 -4.39828e-16)
(36.1205 -0.418415 4.65557e-17)
(35.2118 -1.19378 -5.10089e-15)
(34.2506 -1.87125 -9.08488e-18)
(33.2381 -2.45103 -6.92913e-17)
(32.1847 -2.93504 -3.57594e-15)
(31.1216 -3.32444 -6.40604e-17)
(30.0957 -3.61652 -4.55738e-15)
(29.2401 -3.79997 -1.24765e-14)
(28.383 -3.85557 3.25542e-15)
(27.0943 -3.51299 4.22175e-16)
(22.6289 -3.0996 2.22461e-15)
(15.4971 14.7358 -5.30814e-17)
(14.8757 13.838 -1.97785e-16)
(14.2864 12.7715 -1.42593e-16)
(13.7388 11.5634 -3.63967e-16)
(13.3165 10.2706 8.26964e-16)
(13.0283 8.89629 -5.95672e-17)
(12.8972 7.47246 -3.10683e-15)
(12.9329 6.07254 -1.07751e-15)
(13.1332 4.75297 1.7177e-17)
(13.4834 3.53326 0)
(13.9568 2.43624 -1.00582e-15)
(14.5253 1.47808 9.38506e-16)
(15.168 0.655385 -9.04208e-16)
(15.8646 -0.0387862 -4.6323e-16)
(16.5962 -0.609441 3.86704e-16)
(17.3491 -1.06688 3.84802e-16)
(18.1115 -1.42057 1.38036e-15)
(18.8738 -1.67985 -3.2708e-16)
(19.6303 -1.85323 -5.56995e-16)
(20.3773 -1.94747 0)
(21.1124 -1.96595 -8.47565e-16)
(21.8322 -1.90904 -6.30185e-16)
(22.5313 -1.774 -1.32893e-17)
(23.1971 -1.55808 -6.80477e-17)
(23.8086 -1.26517 -2.1867e-17)
(24.3457 -0.91206 3.34187e-16)
(24.8009 -0.518774 -6.20733e-18)
(25.1754 -0.0989119 4.96332e-17)
(25.4706 0.337207 8.32752e-18)
(25.687 0.778621 3.26984e-17)
(25.8266 1.21483 -1.27645e-17)
(25.893 1.63766 -1.23299e-16)
(25.8893 2.03903 -1.18806e-16)
(25.8175 2.41278 -1.15046e-16)
(25.672 2.75549 -6.93362e-18)
(25.452 3.05975 4.22227e-18)
(25.0881 3.32545 -2.15776e-15)
(24.6375 3.44733 -3.22142e-15)
(23.5874 3.43329 -4.42487e-15)
(17.0906 14.7783 -1.38419e-17)
(17.8162 15.5265 -8.64322e-18)
(18.6852 16.2869 -2.20459e-17)
(19.664 17.0115 9.90885e-18)
(20.7146 17.6459 4.78697e-17)
(21.8758 18.2035 -1.38287e-16)
(23.1169 18.6565 4.59198e-16)
(24.4131 18.9815 0)
(25.7615 19.1709 4.09296e-16)
(27.1391 19.2125 1.24412e-17)
(28.5273 19.0975 -5.025e-16)
(29.9113 18.8208 -1.95768e-15)
(31.2684 18.3799 -7.96862e-16)
(32.577 17.7756 0)
(33.8158 17.0127 0)
(34.9618 16.1002 0)
(35.9933 15.053 0)
(36.8919 13.8874 -2.04599e-15)
(37.6436 12.621 2.01614e-15)
(38.2381 11.277 1.97319e-15)
(38.6719 9.88029 -1.59182e-15)
(38.9453 8.4531 1.40253e-15)
(39.056 7.00842 -1.4634e-15)
(38.9871 5.55861 -1.08042e-16)
(38.7101 4.14049 -5.04831e-17)
(38.2195 2.81882 8.64628e-16)
(37.5611 1.64847 1.86933e-16)
(36.806 0.635683 0)
(35.9988 -0.250587 0)
(35.1445 -1.03459 4.17079e-17)
(34.2348 -1.72112 0)
(33.2657 -2.30958 3.77396e-15)
(32.2326 -2.80009 -3.35084e-15)
(31.1333 -3.19002 -5.38696e-15)
(29.9596 -3.47229 8.47787e-15)
(28.7974 -3.62857 6.01703e-15)
(27.7007 -3.64803 -3.23043e-15)
(27.1279 -3.34599 -8.90436e-16)
(24.0512 -3.10687 -2.24479e-15)
(16.4581 14.0067 0)
(15.8803 13.1953 5.52485e-17)
(15.3252 12.2295 2.70631e-16)
(14.8023 11.134 -1.17038e-15)
(14.3886 9.96399 1.03273e-15)
(14.0893 8.71696 -8.27987e-16)
(13.9276 7.41859 9.83766e-18)
(13.9138 6.13888 8.15516e-16)
(14.0462 4.92952 8.61935e-16)
(14.3123 3.80451 0)
(14.6904 2.78312 4.13902e-16)
(15.1577 1.88017 -1.26532e-15)
(15.698 1.09237 2.00448e-15)
(16.2955 0.414485 3.64867e-16)
(16.935 -0.156307 -7.42625e-16)
(17.6054 -0.626892 -6.91325e-16)
(18.2962 -1.00321 -6.35219e-16)
(18.9981 -1.29118 0)
(19.7046 -1.49637 0)
(20.4103 -1.62349 0)
(21.111 -1.67494 7.90612e-16)
(21.8019 -1.6509 0)
(22.4763 -1.5493 -5.09376e-16)
(23.1223 -1.3686 -6.52003e-17)
(23.7202 -1.11235 -3.89028e-16)
(24.251 -0.794356 -2.9353e-16)
(24.7055 -0.432629 0)
(25.0829 -0.0408594 -4.09127e-17)
(25.3834 0.370264 -8.77323e-18)
(25.607 0.789599 1.62634e-18)
(25.7549 1.20626 1.1166e-16)
(25.8302 1.61099 -2.17178e-17)
(25.8354 1.99742 1.14095e-16)
(25.7723 2.35975 -1.70497e-16)
(25.635 2.69435 0)
(25.4225 2.99317 -1.34918e-17)
(25.0697 3.25381 -5.13657e-17)
(24.6314 3.37107 3.05109e-15)
(23.659 3.3434 -2.59672e-17)
(17.8924 14.054 1.60664e-17)
(18.5663 14.7362 0)
(19.3722 15.4313 6.14779e-17)
(20.2767 16.0944 -2.65632e-17)
(21.2423 16.675 -3.00019e-17)
(22.3079 17.1885 1.29366e-16)
(23.4448 17.6094 -2.01906e-16)
(24.6303 17.9173 -2.46138e-16)
(25.8645 18.1058 0)
(27.1275 18.1637 -4.33058e-16)
(28.4043 18.0824 -4.65376e-16)
(29.6838 17.856 4.6226e-16)
(30.9467 17.4804 1.7321e-15)
(32.175 16.9532 6.9661e-16)
(33.3492 16.2759 -2.11473e-15)
(34.4477 15.4541 -1.53029e-15)
(35.4499 14.4973 1.21107e-15)
(36.3368 13.419 8.96295e-16)
(37.09 12.2409 -4.4063e-16)
(37.6962 10.9865 4.41473e-16)
(38.1486 9.67787 1.11944e-15)
(38.4453 8.33324 2.0848e-16)
(38.5823 6.96544 -1.99609e-16)
(38.5461 5.58827 -1.33949e-15)
(38.3149 4.23385 0)
(37.8833 2.95667 -7.24284e-16)
(37.2869 1.80763 -3.48664e-16)
(36.5864 0.800018 -3.21951e-16)
(35.8249 -0.0875606 -1.19217e-15)
(35.0123 -0.875263 4.47217e-15)
(34.1452 -1.56739 1.84475e-15)
(33.2225 -2.16294 5.87712e-18)
(32.2409 -2.66139 4.12684e-17)
(31.1932 -3.05898 0)
(30.0484 -3.34599 -3.9632e-15)
(28.8228 -3.49813 0)
(27.4164 -3.49375 0)
(26.7094 -3.14676 4.55079e-16)
(24.6677 -2.99906 4.51688e-18)
(17.3018 13.3508 -5.41706e-17)
(16.7612 12.6133 1.8363e-16)
(16.2357 11.7339 1.23455e-17)
(15.7355 10.7348 2.59773e-16)
(15.3318 9.66931 -9.37283e-16)
(15.027 8.53087 6.8853e-16)
(14.8437 7.34088 3.50901e-17)
(14.7935 6.16651 -6.75569e-16)
(14.8738 5.05457 -6.62438e-16)
(15.0743 4.0153 -7.06167e-16)
(15.3764 3.06542 -1.40183e-15)
(15.7612 2.21822 0)
(16.2156 1.46984 -7.20533e-16)
(16.7275 0.815707 -2.54893e-17)
(17.2846 0.254331 0)
(17.8785 -0.219305 -6.07418e-16)
(18.5006 -0.608455 -2.89746e-16)
(19.1425 -0.916436 -2.72943e-16)
(19.7976 -1.14635 9.42282e-16)
(20.4598 -1.30077 8.42046e-16)
(21.1238 -1.38071 -8.73129e-17)
(21.7835 -1.38596 6.52804e-16)
(22.4318 -1.3147 1.2888e-16)
(23.0565 -1.1659 -6.23343e-17)
(23.6394 -0.942805 3.44298e-16)
(24.1621 -0.656733 2.10705e-17)
(24.6142 -0.323518 0)
(24.993 0.0435019 0)
(25.2978 0.433494 -1.72416e-18)
(25.5276 0.835432 4.18718e-18)
(25.683 1.23832 -1.31261e-16)
(25.7664 1.63289 -2.10994e-17)
(25.7797 2.01128 1.85332e-16)
(25.7244 2.36629 1.61292e-16)
(25.5947 2.69312 9.13848e-18)
(25.3896 2.98177 4.38937e-18)
(25.0487 3.22771 3.99604e-15)
(24.6244 3.32306 -2.90771e-15)
(23.7302 3.26543 2.41075e-17)
(18.6007 13.3999 6.16486e-18)
(19.2296 14.0245 0)
(19.9809 14.6621 -3.62674e-17)
(20.8212 15.2704 0)
(21.7134 15.8029 -7.14784e-17)
(22.6964 16.2759 6.91795e-17)
(23.7427 16.6664 1.52711e-16)
(24.8316 16.9562 2.31512e-16)
(25.9647 17.1402 0)
(27.1247 17.2087 -2.85754e-16)
(28.2998 17.1539 4.75629e-16)
(29.4815 16.9696 -9.77451e-16)
(30.6538 16.6509 -5.47875e-16)
(31.8011 16.1943 -5.58786e-16)
(32.9067 15.5991 1.34426e-15)
(33.9508 14.8678 1.45829e-15)
(34.9137 14.0073 -1.56833e-15)
(35.7764 13.0287 -1.56931e-15)
(36.5219 11.9461 0)
(37.1353 10.7778 4.05485e-16)
(37.6067 9.54339 -7.84976e-16)
(37.9299 8.26286 1.91893e-16)
(38.098 6.95351 2.62865e-18)
(38.0986 5.63352 3.15889e-15)
(37.9144 4.33244 -1.74995e-16)
(37.5401 3.09525 1.09516e-16)
(37.0033 1.96719 3.21024e-16)
(36.3549 0.965744 3.40326e-16)
(35.6348 0.0776592 1.02203e-15)
(34.8567 -0.712932 -2.05035e-15)
(34.0209 -1.40952 -1.68427e-15)
(33.1291 -2.01061 -6.60838e-15)
(32.182 -2.51521 5.68368e-15)
(31.178 -2.91934 -8.05414e-17)
(30.0901 -3.21338 3.67419e-15)
(28.9298 -3.36965 -1.12421e-16)
(27.49 -3.37249 6.16288e-17)
(26.4209 -2.97848 4.24614e-18)
(24.8013 -2.8211 -1.95543e-15)
(18.0469 12.7564 2.66683e-17)
(17.5388 12.0826 -9.43531e-17)
(17.0402 11.278 1.85636e-16)
(16.5609 10.3625 0)
(16.1681 9.38724 5.44874e-16)
(15.8618 8.34252 0)
(15.6638 7.2474 0)
(15.5863 6.16578 0)
(15.6266 5.14032 1.22453e-15)
(15.7754 4.17862 -6.04749e-16)
(16.0167 3.29544 6.83841e-16)
(16.334 2.50278 0)
(16.7167 1.79597 0)
(17.1549 1.17039 -6.18729e-16)
(17.6393 0.625118 0)
(18.1634 0.15632 5.62828e-16)
(18.7207 -0.237926 1.2897e-17)
(19.3041 -0.558859 0)
(19.9074 -0.807514 -6.69796e-16)
(20.5248 -0.984753 -9.92409e-16)
(21.15 -1.09033 -6.91035e-16)
(21.7766 -1.12326 -6.01021e-16)
(22.3969 -1.08149 1.02962e-15)
(22.9988 -0.964164 0)
(23.5651 -0.774116 3.44887e-16)
(24.0777 -0.52051 3.18401e-16)
(24.5256 -0.217213 1.18682e-16)
(24.9046 0.122988 0)
(25.2125 0.489213 -8.747e-18)
(25.4478 0.870466 -5.20422e-17)
(25.6104 1.25573 1.43983e-16)
(25.7018 1.63517 -2.01919e-17)
(25.7235 2.00096 -1.67517e-16)
(25.6766 2.34565 2.01779e-16)
(25.5552 2.6638 -2.42051e-18)
(25.358 2.94426 9.14023e-18)
(25.0299 3.18025 -3.87426e-15)
(24.62 3.26435 2.69242e-15)
(23.8002 3.18881 6.79878e-15)
(19.2312 12.8048 2.88597e-18)
(19.8209 13.3784 -1.80717e-17)
(20.5244 13.9648 0)
(21.3089 14.5237 -1.59612e-17)
(22.1378 15.0125 0)
(23.0493 15.4477 0)
(24.0171 15.8086 1.9622e-17)
(25.0219 16.0788 2.01088e-16)
(26.0667 16.2546 4.66409e-16)
(27.1361 16.3273 1.19617e-15)
(28.2203 16.2901 6.79022e-16)
(29.3136 16.137 7.86027e-16)
(30.4023 15.8627 0)
(31.4738 15.4625 1.53831e-15)
(32.5135 14.9342 -5.45939e-16)
(33.5036 14.2782 0)
(34.4261 13.4984 1.30665e-15)
(35.2626 12.6027 1.49691e-15)
(35.9959 11.6027 0)
(36.6097 10.5154 1.43745e-15)
(37.0913 9.35869 -1.40763e-15)
(37.4325 8.15103 0)
(37.6249 6.90991 -1.69308e-16)
(37.6572 5.65453 2.89763e-17)
(37.5154 4.41173 8.19487e-17)
(37.1942 3.21921 1.24511e-15)
(36.7142 2.1173 -4.51631e-18)
(36.1172 1.12676 -3.33121e-17)
(35.4394 0.241714 -2.7877e-17)
(34.6958 -0.549354 6.18843e-17)
(33.8893 -1.24863 1.68352e-15)
(33.0232 -1.85381 5.9313e-15)
(32.0996 -2.36309 4.80674e-17)
(31.1208 -2.77187 -4.2852e-15)
(30.0674 -3.07123 -3.31056e-15)
(28.9624 -3.23035 -4.80928e-15)
(27.6282 -3.24719 -2.72338e-15)
(26.381 -2.84271 2.00072e-17)
(24.8154 -2.62346 1.852e-15)
(18.7096 12.2137 -6.06158e-17)
(18.2304 11.5959 -2.25494e-16)
(17.756 10.8567 4.46627e-16)
(17.2965 10.0143 0)
(16.9148 9.11778 8.74925e-16)
(16.6099 8.15512 0)
(16.4022 7.14371 -4.79019e-16)
(16.3042 6.14431 1.92176e-15)
(16.3136 5.19589 -1.48634e-15)
(16.4215 4.30453 0)
(16.6138 3.48314 1.10321e-15)
(16.8758 2.74256 1.0676e-15)
(17.1984 2.07755 0)
(17.5738 1.48332 -1.0545e-15)
(17.9943 0.958946 2.55293e-16)
(18.4555 0.500841 -2.55674e-16)
(18.9525 0.108013 2.49059e-16)
(19.4799 -0.21949 4.37658e-16)
(20.0323 -0.481217 -1.62993e-17)
(20.6042 -0.67651 5.30584e-16)
(21.1895 -0.80388 1.56905e-16)
(21.7815 -0.861502 -1.50684e-16)
(22.3722 -0.846983 -4.85793e-16)
(22.95 -0.759196 4.1811e-16)
(23.4981 -0.60032 -3.03811e-16)
(23.9988 -0.377801 -3.20323e-16)
(24.4409 -0.10355 -1.11845e-16)
(24.8184 0.210442 -1.24495e-18)
(25.1283 0.553427 9.52073e-18)
(25.3682 0.914622 4.92054e-17)
(25.5373 1.28304 1.05208e-17)
(25.6363 1.64868 -1.93709e-17)
(25.6661 2.00316 2.32935e-16)
(25.6273 2.33814 -2.04098e-16)
(25.5143 2.6472 9.55477e-18)
(25.3255 2.91779 -7.19124e-16)
(25.011 3.14109 1.86308e-15)
(24.6169 3.21081 0)
(23.8683 3.11658 -6.44687e-15)
(19.7952 12.26 1.0103e-17)
(20.3502 12.7882 0)
(21.0114 13.3285 0)
(21.7466 13.8431 8.41028e-18)
(22.5198 14.2922 -2.03853e-17)
(23.3685 14.6926 0)
(24.2673 15.0254 0)
(25.198 15.276 -6.55947e-16)
(26.1645 15.4418 -3.33334e-17)
(27.1531 15.5152 -4.06555e-17)
(28.1554 15.4901 -1.56833e-15)
(29.1679 15.3611 -4.1153e-16)
(30.1789 15.1231 7.85799e-16)
(31.1782 14.7709 -6.7054e-17)
(32.1535 14.3012 0)
(33.089 13.7127 0)
(33.9684 13.0074 -3.57423e-15)
(34.774 12.1905 -6.60907e-16)
(35.4892 11.2711 6.71088e-16)
(36.0977 10.262 -1.39276e-15)
(36.5852 9.17914 2.65101e-15)
(36.941 8.04018 1.26013e-15)
(37.1553 6.86335 -1.22648e-15)
(37.2173 5.6691 -1.39816e-15)
(37.1151 4.48229 2.2312e-16)
(36.8437 3.33435 -1.21824e-15)
(36.4179 2.26075 -1.38287e-16)
(35.8717 1.28414 3.07654e-17)
(35.237 0.404662 -3.09473e-17)
(34.5299 -0.384913 1.03511e-16)
(33.7547 -1.0854 -4.31378e-17)
(32.9155 -1.69362 -2.90567e-15)
(32.0149 -2.20671 -1.08559e-16)
(31.056 -2.61922 1.27665e-16)
(30.0241 -2.92247 0)
(28.9427 -3.08343 4.43524e-15)
(27.6999 -3.10623 2.5304e-15)
(26.4602 -2.71732 0)
(24.8812 -2.43376 0)
(19.3024 11.7154 0)
(18.8489 11.147 2.01206e-16)
(18.397 10.4656 -6.66267e-16)
(17.956 9.68796 -3.22949e-16)
(17.5855 8.86082 -7.90237e-16)
(17.284 7.97058 0)
(17.0703 7.03368 0)
(16.9571 6.1076 -8.56071e-16)
(16.9424 5.22831 8.94829e-16)
(17.0178 4.40062 0)
(17.1704 3.63609 -4.65234e-16)
(17.3869 2.94474 -5.01996e-16)
(17.6594 2.3209 4.75277e-16)
(17.981 1.75926 4.93061e-16)
(18.3458 1.2586 -9.16061e-16)
(18.7508 0.815528 0)
(19.1926 0.42929 -2.07169e-16)
(19.667 0.100651 1.29659e-17)
(20.17 -0.169022 9.20005e-16)
(20.6968 -0.377915 -1.70329e-16)
(21.2416 -0.523416 1.63617e-16)
(21.7979 -0.602915 -1.25017e-16)
(22.3579 -0.613506 1.77414e-16)
(22.9103 -0.553625 -8.44638e-16)
(23.4386 -0.424617 -3.00206e-16)
(23.9259 -0.232335 2.59837e-16)
(24.3602 0.0130447 -1.59466e-17)
(24.7349 0.300489 0)
(25.0455 0.61955 -9.15319e-18)
(25.2891 0.959666 5.40129e-17)
(25.464 1.30997 -7.63356e-17)
(25.5702 1.66023 1.27194e-16)
(25.6079 2.00177 -4.76193e-16)
(25.5774 2.32581 5.06689e-16)