/*--------------------------------*- C++ -*----------------------------------*\
| =========                 |                                                 |
| \\      /  F ield         | OpenFOAM: The Open Source CFD Toolbox           |
|  \\    /   O peration     | Version:  2312                                  |
|   \\  /    A nd           | Website:  www.openfoam.com                      |
|    \\/     M anipulation  |                                                 |
\*---------------------------------------------------------------------------*/
FoamFile
{
    version     2.0;
    format      ascii;
    arch        "LSB;label=32;scalar=64";
    class       volScalarField;
    location    "150";
    object      div(phi);
}
// * * * * * * * * * * * * * * * * * * * * * * * * * * * * * * * * * * * * * //

dimensions      [0 0 -1 0 0 0 0];

internalField   nonuniform List<scalar> 
10720
(
5.23342e-05
-4.35372e-05
-1.46924e-05
-0.000145996
-1.14223e-05
-7.26651e-05
6.67744e-05
6.48039e-07
-5.96626e-06
-2.25938e-05
-1.65472e-05
-5.3366e-06
2.92118e-06
5.05808e-06
4.15087e-06
2.43501e-06
5.21112e-06
8.32906e-06
1.33152e-05
1.83652e-05
2.81655e-05
2.55901e-05
4.09199e-05
2.59335e-05
4.06678e-05
5.5855e-05
5.9222e-05
1.13648e-05
-2.94971e-05
-5.13865e-05
2.60467e-05
2.48195e-05
1.60457e-05
-1.0822e-06
6.50091e-05
7.49208e-05
9.75627e-05
0.000290283
0.00420747
5.98725e-05
0.000152677
1.10412e-05
7.52917e-05
-4.162e-05
-2.5286e-05
1.46943e-05
9.31195e-05
9.17688e-05
7.21376e-05
5.12159e-05
3.72765e-05
2.56727e-05
2.06923e-05
1.70188e-05
1.64151e-05
1.47605e-05
1.47567e-05
1.29103e-05
1.46641e-05
1.94795e-06
4.97863e-06
-3.21464e-05
-3.27734e-05
-2.37305e-05
-1.83141e-05
-1.33398e-05
-1.01627e-05
1.14722e-05
-4.93653e-06
-6.33977e-06
3.28498e-06
-7.51809e-07
7.32685e-07
-6.67838e-06
-1.46672e-05
-3.23465e-05
-0.000204125
0.000134896
-0.000105908
-2.1921e-05
-6.24802e-05
-0.000100712
-3.3776e-08
2.08707e-05
2.46201e-05
4.10877e-05
-1.74547e-05
-2.28509e-05
-1.49343e-05
-2.49791e-06
5.14827e-06
8.71785e-06
9.21904e-06
1.14111e-05
1.61177e-05
2.19155e-05
2.83611e-05
3.46806e-05
4.19174e-05
4.90335e-05
5.64234e-05
5.89666e-05
5.72011e-05
4.7981e-05
2.3073e-05
-1.91913e-05
-4.1421e-05
-4.4397e-05
4.57626e-05
-5.13834e-05
-2.70874e-05
1.65366e-05
4.87534e-05
9.22773e-05
0.000121368
0.000272417
0.00245352
0.000103969
2.67572e-05
6.07401e-05
8.08114e-06
-1.624e-05
-2.05262e-05
2.56672e-05
5.41839e-05
5.95602e-05
5.31126e-05
4.22815e-05
3.25702e-05
2.33618e-05
1.90352e-05
1.41594e-05
1.46936e-05
1.18189e-05
1.55767e-05
1.23703e-05
1.38396e-05
-3.54622e-07
-8.4849e-06
-4.33729e-05
-5.35637e-05
-4.72227e-05
-2.3723e-05
2.09135e-06
2.29686e-05
4.01237e-05
2.26346e-05
2.93717e-05
2.18349e-05
1.55986e-05
2.96863e-06
4.08031e-06
-1.00909e-05
-3.64601e-05
-0.000268968
0.000192724
9.58952e-05
-4.21954e-05
-0.000103699
1.95338e-05
-2.36328e-05
5.63294e-05
7.79123e-05
-1.08977e-05
-1.45465e-05
-2.13519e-05
-1.19513e-05
6.18371e-08
7.79171e-06
9.32716e-06
6.04335e-06
2.13859e-06
-1.18191e-08
-9.96874e-07
-1.3091e-06
-1.6068e-06
-7.40443e-07
-7.30491e-06
-9.55375e-06
-2.03814e-05
-1.68756e-05
1.37969e-06
2.97283e-05
1.60705e-05
1.0669e-05
-9.81757e-06
3.21918e-05
3.64173e-05
3.15587e-05
-5.9525e-06
3.91041e-05
1.90882e-05
2.59981e-05
7.50227e-05
0.00129259
1.30063e-05
6.76211e-05
4.67779e-05
4.77788e-06
-8.79462e-06
5.92073e-06
2.08868e-05
4.16817e-05
4.72893e-05
3.92668e-05
3.3377e-05
2.33796e-05
1.95783e-05
1.53626e-05
1.66122e-05
1.54399e-05
1.74988e-05
1.51111e-05
1.77648e-05
1.37609e-05
1.38873e-05
8.2499e-06
-4.11733e-06
-8.0524e-06
-2.28092e-06
-9.10484e-06
-2.19787e-05
-2.54545e-05
-1.9794e-05
-1.49734e-05
-2.31228e-05
-1.19831e-05
-1.2863e-05
-3.15004e-06
-1.71618e-05
-1.59213e-05
-2.20172e-05
-9.84931e-05
4.62494e-05
1.06066e-05
-5.40718e-05
1.61075e-05
-4.41155e-05
7.50767e-05
7.44514e-05
1.16052e-05
1.61744e-05
-2.15391e-05
-2.17893e-05
-1.04326e-05
8.20412e-07
9.45105e-06
1.15683e-05
1.19123e-05
1.24749e-05
1.47545e-05
1.83214e-05
2.20479e-05
2.6663e-05
3.09612e-05
3.49963e-05
3.80388e-05
3.88387e-05
3.99075e-05
4.07536e-05
3.61515e-05
1.09267e-05
-1.03596e-05
-2.19714e-05
4.06999e-05
-3.26464e-05
-1.42017e-05
1.31839e-05
4.16854e-05
7.02044e-05
9.1134e-05
0.000188752
0.00127688
4.74242e-05
5.18551e-05
1.60104e-05
2.77304e-05
-6.64776e-08
-3.28395e-06
2.10638e-05
3.58859e-05
3.62818e-05
3.59165e-05
2.96105e-05
2.39026e-05
1.94283e-05
1.63185e-05
1.63843e-05
1.48872e-05
1.69968e-05
1.5348e-05
1.75165e-05
1.21937e-05
7.67503e-06
-6.48383e-06
-2.46254e-05
-3.93037e-05
-3.86893e-05
-2.89901e-05
-1.17422e-05
5.08918e-06
1.90185e-05
1.38071e-05
1.73985e-05
1.43078e-05
8.17541e-06
-3.40025e-07
-3.03083e-06
-1.31316e-05
-3.82535e-05
-0.000217353
0.000139654
-1.81621e-05
1.24088e-05
-3.74318e-05
7.35243e-05
4.462e-05
5.20298e-05
4.26025e-05
-1.59676e-05
-1.88561e-05
-1.95517e-05
-1.06166e-05
1.67684e-06
8.57884e-06
1.03671e-05
7.81794e-06
3.96012e-06
8.70485e-07
-1.48282e-06
-3.3511e-06
-5.45102e-06
-6.70776e-06
-1.19718e-05
-1.75128e-05
-2.53736e-05
-2.64079e-05
-1.02764e-05
1.21177e-05
4.11954e-06
7.05811e-06
-2.93301e-06
5.98344e-05
2.88219e-05
3.64458e-05
-9.15021e-06
3.69262e-05
6.33078e-06
1.31094e-05
3.13875e-05
0.000679953
3.48069e-05
2.30522e-05
4.72068e-05
-1.50127e-06
5.01857e-07
7.9103e-06
1.40974e-05
2.80712e-05
3.22818e-05
3.15816e-05
2.50994e-05
2.02067e-05
1.41626e-05
1.34503e-05
1.14292e-05
1.4074e-05
1.2712e-05
1.51702e-05
1.31622e-05
1.45705e-05
1.1219e-05
1.07913e-05
2.12231e-06
4.24786e-06
3.05811e-06
-1.74709e-06
-1.7735e-05
-2.66091e-05
-2.8731e-05
-1.33831e-05
-2.78472e-05
-1.92953e-05
-1.65025e-05
-5.07504e-06
-2.04795e-05
-1.33741e-05
-1.39412e-05
-4.52469e-05
1.33267e-05
3.02262e-06
-2.23144e-05
4.14659e-05
6.42348e-06
8.05076e-05
4.41457e-05
3.64224e-06
-3.51687e-07
-2.15466e-05
-1.90859e-05
-9.36093e-06
2.56199e-06
9.11751e-06
1.22142e-05
1.19976e-05
1.21084e-05
1.34373e-05
1.52464e-05
1.77893e-05
2.03842e-05
2.37212e-05
2.60887e-05
2.84441e-05
2.98675e-05
3.22788e-05
3.82018e-05
4.04812e-05
2.95086e-05
7.35065e-06
-7.4746e-06
3.83184e-05
-1.81931e-05
-5.46249e-06
1.29008e-05
4.27219e-05
6.84584e-05
8.34126e-05
0.000164238
0.000833135
3.22931e-05
3.01249e-05
1.8959e-05
2.32301e-05
-5.58142e-06
-9.44955e-06
1.44895e-05
2.18717e-05
2.96701e-05
2.87481e-05
2.65004e-05
2.07766e-05
1.68335e-05
1.46796e-05
1.37018e-05
1.48413e-05
1.4446e-05
1.6059e-05
1.45312e-05
1.30839e-05
7.30141e-06
-1.96103e-06
-1.48967e-05
-2.70202e-05
-3.1076e-05
-2.93324e-05
-1.89766e-05
-7.82181e-06
4.14856e-06
4.70664e-06
6.34711e-06
6.46552e-06
3.29737e-06
-2.40847e-06
-5.14656e-06
-1.31603e-05
-3.30824e-05
-0.000147807
8.53502e-05
3.33149e-05
-1.19541e-06
-1.59176e-05
7.28148e-05
2.88837e-05
3.73173e-05
1.83406e-05
-1.37922e-05
-1.83719e-05
-1.84957e-05
-8.459e-06
9.91542e-07
8.21916e-06
9.96048e-06
8.69084e-06
5.90938e-06
3.09921e-06
7.84174e-07
-1.68368e-06
-3.91472e-06
-6.11151e-06
-9.80154e-06
-1.56129e-05
-2.22279e-05
-2.42618e-05
-1.78767e-05
-4.90114e-06
-1.28335e-05
-8.9617e-06
-2.32554e-06
7.5272e-05
2.14839e-05
3.63931e-05
-1.14533e-05
3.31528e-05
4.63138e-07
1.93916e-06
1.63315e-05
0.000418517
-6.05686e-06
4.90141e-05
3.18925e-05
-9.16539e-06
-7.373e-06
2.86705e-06
3.99966e-06
1.84371e-05
2.51182e-05
2.67931e-05
2.41161e-05
1.82555e-05
1.45242e-05
1.03465e-05
1.0746e-05
9.13669e-06
1.13898e-05
9.56705e-06
1.18982e-05
8.48293e-06
1.10729e-05
5.06099e-06
7.32265e-06
2.45496e-06
7.88796e-06
-8.56925e-07
-8.93026e-06
-2.10761e-05
-2.57134e-05
-1.08031e-05
-2.39154e-05
-2.18381e-05
-1.69794e-05
-5.37174e-06
-1.97311e-05
-9.50019e-06
-3.82089e-06
-8.28857e-06
-7.76147e-06
-4.28411e-05
-1.46939e-05
3.35775e-05
1.24171e-05
6.25137e-05
2.70261e-05
4.41916e-06
-8.97128e-06
-1.92609e-05
-1.65222e-05
-6.93912e-06
2.31865e-06
9.0029e-06
1.11538e-05
1.14581e-05
1.12476e-05
1.16691e-05
1.31864e-05
1.43506e-05
1.63106e-05
1.82908e-05
2.01387e-05
2.15437e-05
2.30753e-05
2.58406e-05
3.2245e-05
3.81941e-05
3.50314e-05
1.95791e-05
2.6525e-06
3.4123e-05
-5.69661e-06
3.85381e-06
1.23913e-05
3.96469e-05
6.24949e-05
7.70573e-05
0.000156707
0.000616728
4.95089e-05
2.31223e-05
1.09084e-05
1.5672e-05
-7.79505e-06
-1.27168e-05
5.72358e-06
1.62679e-05
2.2057e-05
2.6718e-05
2.40378e-05
2.03237e-05
1.53811e-05
1.27916e-05
1.1315e-05
1.15917e-05
1.17476e-05
1.26144e-05
1.16482e-05
1.08564e-05
6.28957e-06
6.69133e-07
-8.55303e-06
-1.73857e-05
-2.30005e-05
-2.50701e-05
-2.07861e-05
-1.44141e-05
-6.06082e-06
-3.50668e-06
-2.43197e-06
-7.3019e-07
-1.40303e-06
-3.61093e-06
-6.0199e-06
-1.1519e-05
-2.59301e-05
-9.08097e-05
4.09213e-05
8.02219e-06
3.89772e-06
6.10821e-06
6.08872e-05
2.62923e-05
3.04848e-05
6.1038e-06
-9.64143e-06
-1.77262e-05
-1.43345e-05
-6.91824e-06
2.18869e-06
7.35065e-06
9.56251e-06
8.93469e-06
6.9896e-06
5.1196e-06
2.92258e-06
1.02812e-06
-1.34457e-06
-3.0586e-06
-6.13925e-06
-1.07688e-05
-1.6051e-05
-1.89166e-05
-1.85825e-05
-1.4295e-05
-2.6195e-05
-2.28308e-05
-1.07317e-05
7.64287e-05
1.65644e-05
3.18302e-05
-1.14325e-05
2.50537e-05
-6.56673e-06
-9.38902e-06
8.83386e-06
0.000260575
1.03811e-05
2.5802e-05
2.97668e-05
-8.88384e-06
-7.11282e-06
5.53719e-07
2.33204e-07
9.53322e-06
1.93497e-05
2.25734e-05
2.20402e-05
1.82791e-05
1.34194e-05
1.06707e-05
8.10089e-06
8.35464e-06
7.11546e-06
8.37408e-06
6.50018e-06
7.81068e-06
4.8618e-06
5.95362e-06
2.67744e-06
5.10888e-06
4.22947e-06
3.18736e-06
-4.42396e-06
-1.19794e-05
-1.77385e-05
-6.1621e-06
-1.77724e-05
-2.01385e-05
-1.62307e-05
-6.75859e-06
-1.77539e-05
-5.74442e-06
3.22339e-06
3.10434e-06
-7.73854e-06
3.88919e-06
8.33185e-06
3.57656e-05
2.17207e-05
4.92567e-05
1.97118e-05
5.28961e-06
-1.34384e-05
-1.54642e-05
-1.22429e-05
-4.41823e-06
3.5453e-06
8.21255e-06
1.0414e-05
1.04499e-05
1.01719e-05
1.02804e-05
1.1083e-05
1.21084e-05
1.3171e-05
1.4666e-05
1.573e-05
1.67951e-05
1.78567e-05
2.04167e-05
2.59319e-05
3.2117e-05
3.31221e-05
2.3706e-05
9.04067e-06
3.11112e-05
3.05336e-06
1.07251e-05
1.3872e-05
3.34495e-05
5.1443e-05
6.15283e-05
0.000141005
0.000474638
1.548e-05
2.81654e-05
2.72398e-06
8.94179e-06
-6.55958e-06
-1.56561e-05
1.78371e-06
8.55261e-06
1.75792e-05
2.15676e-05
2.21071e-05
1.80867e-05
1.42632e-05
1.04829e-05
9.15133e-06
7.88787e-06
8.90488e-06
8.11522e-06
9.22613e-06
7.00272e-06
6.06296e-06
7.59461e-07
-3.43902e-06
-1.11496e-05
-1.49092e-05
-1.94671e-05
-1.81249e-05
-1.63943e-05
-1.12447e-05
-9.03855e-06
-8.56388e-06
-6.27573e-06
-5.44179e-06
-5.63148e-06
-6.35837e-06
-9.65818e-06
-1.87915e-05
-5.51334e-05
1.48747e-05
3.11772e-06
1.5085e-05
1.77661e-05
4.77963e-05
2.40106e-05
2.25662e-05
-5.41004e-07
-6.27232e-06
-1.36611e-05
-1.01805e-05
-2.95652e-06
2.99757e-06
7.44051e-06
8.80578e-06
8.56577e-06
7.33421e-06
5.77403e-06
4.38426e-06
2.61467e-06
1.08567e-06
-5.88084e-07
-2.54201e-06
-6.41409e-06
-9.72984e-06
-1.35034e-05
-1.43311e-05
-1.77291e-05
-2.84804e-05
-3.22439e-05
-2.15043e-05
6.98981e-05
1.45835e-05
2.51957e-05
-1.07032e-05
1.73975e-05
-1.12094e-05
-1.71595e-05
-2.61229e-06
0.000180582
2.00869e-05
1.18582e-05
1.73379e-05
-1.02917e-05
-9.01097e-06
2.02197e-06
-5.41042e-06
4.88822e-06
1.21235e-05
1.81012e-05
1.84143e-05
1.6141e-05
1.2383e-05
9.16857e-06
7.23255e-06
6.08766e-06
5.81276e-06
5.32417e-06
5.28096e-06
4.30562e-06
4.15362e-06
2.6529e-06
3.05002e-06
2.38891e-06
4.64725e-06
2.64625e-06
5.80962e-07
-5.67243e-06
-8.51101e-06
-2.37459e-06
-1.01243e-05
-1.60592e-05
-1.40796e-05
-7.73215e-06
-1.51439e-05
-2.92892e-06
6.36137e-06
5.63501e-06
-4.50874e-06
1.92548e-05
1.36048e-05
3.05416e-05
2.24345e-05
3.44059e-05
1.43291e-05
4.73592e-06
-1.25942e-05
-1.03005e-05
-7.0558e-06
-1.18371e-06
4.40467e-06
7.88601e-06
9.26908e-06
9.33366e-06
8.9536e-06
8.83268e-06
9.19377e-06
1.01035e-05
1.08822e-05
1.17857e-05
1.25376e-05
1.30923e-05
1.39919e-05
1.57112e-05
2.02669e-05
2.47073e-05
2.78574e-05
2.14582e-05
1.21295e-05
2.79461e-05
8.10303e-06
1.42857e-05
1.50929e-05
2.96646e-05
4.02916e-05
4.66603e-05
0.000117781
0.000340429
1.09879e-05
1.71917e-05
-3.20618e-06
7.25746e-06
-4.35708e-06
-1.55473e-05
-5.56903e-07
5.38346e-06
1.19271e-05
1.69702e-05
1.74832e-05
1.50788e-05
1.15398e-05
8.61779e-06
6.34461e-06
5.94716e-06
5.14346e-06
6.16435e-06
5.20207e-06
5.96697e-06
3.51237e-06
2.46876e-06
-1.97876e-06
-5.3333e-06
-9.80199e-06
-1.28981e-05
-1.45304e-05
-1.45977e-05
-1.28496e-05
-1.15486e-05
-1.13595e-05
-9.66113e-06
-8.16822e-06
-7.5139e-06
-7.42365e-06
-7.7651e-06
-1.2788e-05
-3.37677e-05
9.90456e-07
6.85363e-06
1.84186e-05
1.87906e-05
3.38797e-05
2.00282e-05
1.49716e-05
-1.9751e-06
-2.93311e-06
-9.33277e-06
-5.58262e-06
-7.18558e-07
4.12355e-06
6.74425e-06
7.91899e-06
7.6004e-06
6.73523e-06
5.61376e-06
4.52355e-06
3.40028e-06
2.13815e-06
1.16351e-06
-5.36482e-07
-2.70688e-06
-5.58934e-06
-7.6819e-06
-1.02975e-05
-1.43662e-05
-2.46708e-05
-3.36975e-05
-2.5198e-05
5.14935e-05
1.20714e-05
1.8272e-05
-9.15528e-06
1.08288e-05
-1.07698e-05
-2.22033e-05
-3.81244e-06
9.71933e-05
1.03871e-05
4.9209e-06
1.25058e-05
-9.63032e-06
-5.92869e-06
3.28463e-06
-5.39026e-06
-1.65185e-07
7.85e-06
1.23462e-05
1.42344e-05
1.26677e-05
1.00188e-05
7.31088e-06
5.82279e-06
4.45859e-06
4.52724e-06
3.72914e-06
4.02403e-06
3.07386e-06
2.97399e-06
2.00574e-06
2.06808e-06
1.96528e-06
3.41897e-06
2.99544e-06
2.19479e-06
-9.12051e-07
-2.59707e-06
7.45093e-07
-4.25762e-06
-1.00801e-05
-1.10855e-05
-7.90973e-06
-1.26794e-05
-1.13816e-06
7.96428e-06
2.00385e-06
1.63956e-06
1.60613e-05
1.32476e-05
2.48574e-05
1.98382e-05
2.30881e-05
1.13037e-05
3.88576e-06
-1.07252e-05
-6.67723e-06
-4.34648e-06
6.13834e-07
4.31483e-06
7.04288e-06
7.79612e-06
7.93699e-06
7.47683e-06
7.31592e-06
7.39372e-06
8.09176e-06
8.83292e-06
9.43437e-06
9.86724e-06
1.0325e-05
1.07541e-05
1.22537e-05
1.50003e-05
1.8801e-05
2.06565e-05
1.77199e-05
1.19263e-05
2.33704e-05
9.26393e-06
1.44889e-05
1.52942e-05
2.54392e-05
3.23515e-05
3.31612e-05
9.4442e-05
0.000221361
8.39607e-06
9.32703e-06
-5.18764e-06
7.33345e-06
-1.74846e-06
-1.50395e-05
-1.59642e-06
2.04981e-06
7.94943e-06
1.18705e-05
1.26759e-05
1.12055e-05
8.58702e-06
6.40288e-06
4.72566e-06
3.84866e-06
3.83303e-06
3.55803e-06
4.2258e-06
3.47789e-06
3.62938e-06
1.68949e-06
4.20305e-07
-2.91651e-06
-5.05524e-06
-8.57592e-06
-1.00842e-05
-1.19339e-05
-1.16649e-05
-1.1691e-05
-1.15552e-05
-1.05271e-05
-9.32708e-06
-8.82118e-06
-8.36607e-06
-6.9014e-06
-7.76323e-06
-2.19048e-05
-4.82022e-06
9.47307e-06
1.84609e-05
1.67305e-05
2.40706e-05
1.61453e-05
1.00221e-05
-3.17347e-06
-1.53299e-06
-7.23572e-06
-3.82718e-06
6.59563e-08
3.57117e-06
5.66294e-06
6.48245e-06
6.28123e-06
5.66437e-06
4.7881e-06
4.00676e-06
3.20469e-06
2.42667e-06
1.69465e-06
7.79885e-07
-7.88836e-07
-2.25388e-06
-4.03881e-06
-5.58955e-06
-9.63906e-06
-1.79252e-05
-2.72307e-05
-2.44165e-05
3.31391e-05
8.31717e-06
1.08775e-05
-9.70646e-06
6.28054e-06
-1.04243e-05
-2.2081e-05
-7.57835e-06
3.92002e-05
4.42442e-06
1.66523e-06
9.19698e-06
-7.8445e-06
-6.16354e-06
3.63892e-06
-7.30573e-06
-1.56366e-06
3.83738e-06
8.43974e-06
9.93534e-06
9.17688e-06
7.28151e-06
5.62641e-06
3.99069e-06
3.79522e-06
2.86486e-06
3.51672e-06
2.5788e-06
3.11861e-06
1.9355e-06
2.21948e-06
1.24259e-06
1.99145e-06
2.15204e-06
2.81979e-06
2.24014e-06
1.09216e-06
4.71929e-07
1.79336e-06
-5.55295e-08
-5.23837e-06
-7.02014e-06
-7.2871e-06
-9.36078e-06
1.24444e-08
6.89407e-06
-6.70451e-07
5.38583e-06
1.37974e-05
1.14728e-05
1.91912e-05
1.63011e-05
1.59025e-05
7.802e-06
2.8909e-06
-9.36311e-06
-5.35808e-06
-2.94265e-06
1.19447e-07
3.71707e-06
5.28402e-06
6.37434e-06
6.16568e-06
6.03488e-06
5.67752e-06
5.76178e-06
6.11286e-06
6.99247e-06
7.40149e-06
7.73934e-06
8.0545e-06
8.38503e-06
9.40468e-06
1.13506e-05
1.36475e-05
1.51363e-05
1.28988e-05
1.08345e-05
1.7799e-05
8.60783e-06
1.17829e-05
1.36426e-05
2.07608e-05
2.44881e-05
2.29106e-05
7.22618e-05
0.000135473
6.67523e-06
5.95909e-06
-5.02149e-06
5.38041e-06
-1.57007e-06
-1.35577e-05
-1.72922e-06
1.26216e-06
5.09405e-06
8.00545e-06
8.65339e-06
7.61325e-06
6.18553e-06
4.43766e-06
3.56823e-06
2.8326e-06
2.72218e-06
2.83757e-06
2.78966e-06
3.12505e-06
2.44482e-06
2.3414e-06
5.82456e-07
-4.35929e-07
-3.01401e-06
-4.66852e-06
-7.18674e-06
-8.52223e-06
-9.7668e-06
-9.98902e-06
-1.02621e-05
-9.70515e-06
-8.90942e-06
-9.09469e-06
-8.64358e-06
-6.4457e-06
-4.66566e-06
-1.5336e-05
-6.38935e-06
9.7455e-06
1.53483e-05
1.38339e-05
1.74239e-05
1.22905e-05
6.83809e-06
-3.48509e-06
-1.13148e-06
-5.81682e-06
-3.90459e-06
-2.63351e-07
2.25287e-06
4.41337e-06
4.89468e-06
5.02684e-06
4.45297e-06
3.91925e-06
3.24904e-06
2.81401e-06
2.26574e-06
1.86363e-06
1.3058e-06
4.97066e-07
-3.52362e-07
-1.25705e-06
-2.20522e-06
-4.96389e-06
-1.06828e-05
-1.91757e-05
-1.88318e-05
1.78317e-05
3.89148e-06
3.94214e-06
-8.48389e-06
7.55359e-07
-6.9957e-06
-2.25853e-05
-4.92809e-06
7.42326e-06
2.98774e-06
7.98129e-07
6.38507e-06
-6.48136e-06
-4.60858e-06
3.26525e-06
-5.55718e-06
-2.39982e-06
2.33852e-06
5.38595e-06
6.72129e-06
6.22513e-06
5.10342e-06
3.77071e-06
3.23641e-06
2.36743e-06
2.84117e-06
2.15124e-06
2.8485e-06
1.95226e-06
2.36311e-06
1.36094e-06
1.55378e-06
1.09594e-06
1.69893e-06
1.67758e-06
1.77214e-06
1.17273e-06
1.1924e-06
2.05364e-06
1.24628e-06
-1.35118e-06
-3.92754e-06
-5.08265e-06
-6.41806e-06
1.11689e-06
5.72577e-06
-3.69671e-06
6.77073e-06
1.12515e-05
9.41895e-06
1.48596e-05
1.30189e-05
1.16023e-05
5.57427e-06
2.09445e-06
-8.72136e-06
-5.00092e-06
-3.4988e-06
-2.08488e-07
2.23223e-06
4.17053e-06
4.64744e-06
4.90793e-06
4.53898e-06
4.44217e-06
4.32668e-06
4.63535e-06
5.35141e-06
5.81457e-06
6.09554e-06
6.33873e-06
6.6428e-06
7.39526e-06
8.67344e-06
1.02578e-05
1.07335e-05
9.31122e-06
8.82564e-06
1.28365e-05
6.55583e-06
8.85601e-06
1.02963e-05
1.56939e-05
1.71894e-05
1.41924e-05
5.32902e-05
7.94219e-05
5.39598e-06
3.842e-06
-3.38861e-06
4.1229e-06
-9.63224e-07
-1.08079e-05
-1.22029e-06
5.05189e-07
3.46104e-06
5.17345e-06
5.59806e-06
5.07065e-06
3.97142e-06
3.25387e-06
2.46748e-06
2.37684e-06
2.06363e-06
2.21876e-06
2.35309e-06
2.21414e-06
2.40265e-06
1.63542e-06
1.42552e-06
-9.44676e-08
-9.60286e-07
-3.02964e-06
-4.35367e-06
-6.28131e-06
-7.15844e-06
-8.0223e-06
-8.18918e-06
-8.06147e-06
-7.73941e-06
-8.12111e-06
-8.15505e-06
-5.89105e-06
-2.8188e-06
-1.18416e-05
-6.08583e-06
8.10916e-06
1.2109e-05
1.13217e-05
1.33984e-05
9.5953e-06
4.66695e-06
-4.04801e-06
-1.25535e-06
-6.20563e-06
-3.44002e-06
-1.03101e-06
1.86424e-06
3.09179e-06
4.01369e-06
3.85876e-06
3.69079e-06
3.17382e-06
2.79273e-06
2.46172e-06
2.19073e-06
1.93312e-06
1.66739e-06
1.32554e-06
8.89799e-07
6.16237e-07
9.83447e-08
-1.29448e-06
-4.91219e-06
-1.18246e-05
-1.14496e-05
7.04531e-06
7.24479e-07
-2.60059e-07
-8.24734e-06
-1.38506e-06
-6.60403e-06
-1.96693e-05
-3.97736e-06
-8.41993e-06
2.2695e-06
1.27633e-06
4.28102e-06
-4.89841e-06
-3.65536e-06
2.6908e-06
-4.88755e-06
-1.59151e-06
1.18373e-06
3.53205e-06
4.18885e-06
4.02345e-06
3.15438e-06
2.76904e-06
2.0684e-06
2.2126e-06
1.7604e-06
2.32856e-06
1.69192e-06
2.21503e-06
1.3647e-06
1.61031e-06
7.82044e-07
1.02063e-06
6.38527e-07
9.80722e-07
6.4443e-07
6.61304e-07
7.88933e-07
1.33931e-06
1.57303e-06
7.05252e-08
-1.25713e-06
-3.14583e-06
-3.50556e-06
2.59913e-06
4.25305e-06
-4.8375e-06
6.76446e-06
8.91249e-06
7.92296e-06
1.15526e-05
1.05049e-05
8.25737e-06
4.05971e-06
1.23074e-06
-8.25055e-06
-4.40696e-06
-2.79402e-06
-3.37205e-07
2.00393e-06
3.12399e-06
3.8628e-06
3.76308e-06
3.72092e-06
3.45622e-06
3.46896e-06
3.59454e-06
4.16048e-06
4.68135e-06
4.92687e-06
5.13186e-06
5.42822e-06
5.96318e-06
6.9778e-06
7.8958e-06
7.9615e-06
6.79881e-06
6.99911e-06
8.62164e-06
5.01588e-06
6.06355e-06
7.11384e-06
1.06505e-05
1.06815e-05
7.10266e-06
3.69199e-05
4.52998e-05
4.3898e-06
2.41574e-06
-2.61348e-06
2.85474e-06
-1.11999e-06
-7.88395e-06
-4.85089e-07
7.4494e-07
2.26125e-06
3.28984e-06
3.46303e-06
2.94767e-06
2.64806e-06
2.08353e-06
2.00552e-06
1.74884e-06
1.66729e-06
1.69497e-06
1.79225e-06
1.85907e-06
1.63673e-06
1.66461e-06
9.31823e-07
6.5466e-07
-6.34341e-07
-1.43818e-06
-3.09682e-06
-4.09406e-06
-5.36627e-06
-5.83498e-06
-6.34946e-06
-6.17056e-06
-6.32735e-06
-6.59852e-06
-6.87305e-06
-4.98321e-06
-1.8481e-06
-9.4178e-06
-4.96108e-06
6.56789e-06
9.08971e-06
9.38063e-06
1.0141e-05
7.74496e-06
3.08073e-06
-3.55456e-06
-9.66288e-07
-4.45349e-06
-2.6629e-06
-9.24793e-09
1.5352e-06
2.99352e-06
3.246e-06
3.43699e-06
3.12327e-06
2.89287e-06
2.55578e-06
2.39838e-06
2.27086e-06
2.12592e-06
2.03491e-06
1.90106e-06
1.79517e-06
1.78233e-06
1.62579e-06
1.14022e-06
-1.30463e-06
-5.41604e-06
-6.5369e-06
2.34875e-06
-6.50415e-07
-2.11631e-06
-6.33926e-06
-3.2077e-06
-5.00762e-06
-1.95104e-05
1.68387e-07
-1.05656e-05
1.74878e-06
9.72249e-07
2.7317e-06
-3.8195e-06
-2.08053e-06
2.28101e-06
-2.69427e-06
-1.17275e-06
9.01795e-07
1.93829e-06
2.45597e-06
2.21014e-06
2.06199e-06
1.63287e-06
1.98927e-06
1.23894e-06
1.97586e-06
1.36197e-06
1.90124e-06
1.18259e-06
1.50644e-06
7.18193e-07
8.83358e-07
2.17061e-07
3.8106e-07
-8.85906e-08
3.25761e-08
-2.86183e-07
1.58726e-07
4.01409e-07
1.01469e-06
4.27746e-07
-6.45486e-08
-1.6632e-06
-1.0302e-06
3.04085e-06
4.2989e-06
-5.67068e-06
4.80625e-06
6.84532e-06
6.90418e-06
9.11687e-06
8.47613e-06
5.93799e-06
3.558e-06
9.43507e-07
-6.32492e-06
-2.87305e-06
-1.43149e-06
5.63804e-07
2.03673e-06
3.05386e-06
3.26448e-06
3.37797e-06
3.12268e-06
3.04465e-06
2.92892e-06
3.07156e-06
3.40042e-06
3.96277e-06
4.12305e-06
4.31573e-06
4.53735e-06
4.98524e-06
5.76495e-06
6.3297e-06
6.22153e-06
5.28014e-06
5.37178e-06
6.01313e-06
3.96341e-06
4.24369e-06
4.81895e-06
6.68279e-06
5.83869e-06
1.40139e-06
2.4947e-05
2.4997e-05
3.23208e-06
1.2664e-06
-1.90151e-06
2.12552e-06
-6.93702e-07
-4.81769e-06
1.31929e-07
7.43912e-07
1.48462e-06
1.96883e-06
1.84344e-06
1.69464e-06
1.4962e-06
1.97588e-06
1.1392e-06
1.7433e-06
1.07633e-06
1.49399e-06
1.2146e-06
1.31836e-06
1.27034e-06
1.04247e-06
9.45316e-07
3.54795e-07
-8.17153e-08
-1.0719e-06
-1.91505e-06
-2.98371e-06
-3.7246e-06
-4.34979e-06
-4.64607e-06
-4.696e-06
-4.89923e-06
-5.12265e-06
-5.31093e-06
-3.90391e-06
-1.20633e-06
-7.42623e-06
-3.69404e-06
5.22801e-06
7.04334e-06
7.73112e-06
8.03798e-06
6.64509e-06
1.72732e-06
-2.31897e-06
-3.57007e-07
-3.01774e-06
-9.11287e-07
6.46541e-07
2.24523e-06
2.77478e-06
3.24087e-06
3.06628e-06
3.00389e-06
2.71357e-06
2.56529e-06
2.41904e-06
2.44709e-06
2.3581e-06
2.33497e-06
2.29566e-06
2.36317e-06
2.44468e-06
2.52693e-06
2.30545e-06
1.00798e-06
-1.63137e-06
-2.78299e-06
8.67113e-07
-5.29642e-07
-1.83009e-06
-4.25363e-06
-3.22877e-06
-4.85923e-06
-1.78329e-05
2.88017e-06
-9.40395e-06
1.22941e-06
7.87585e-07
1.68633e-06
-2.8821e-06
-8.95094e-07
2.01003e-06
-1.61509e-06
-3.89522e-07
4.20837e-07
1.06356e-06
1.05585e-06
1.20658e-06
1.46291e-06
1.0454e-06
1.45283e-06
9.34639e-07
1.16355e-06
1.51727e-06
1.30932e-06
1.50105e-06
7.86047e-07
8.65011e-07
1.94948e-07
2.65763e-07
-3.44648e-07
-2.95517e-07
-8.24391e-07
-6.32199e-07
-7.68775e-07
-1.63874e-07
-2.20233e-08
3.57213e-07
-1.73449e-07
-4.91917e-07
-6.21928e-08
3.55642e-06
4.33733e-06
-5.56593e-06
2.92649e-06
5.60492e-06
6.03149e-06
7.35189e-06
6.98624e-06
3.72681e-06
3.69045e-06
5.20183e-07
-4.76267e-06
-1.32235e-06
-1.75697e-07
1.35759e-06
2.47453e-06
2.96752e-06
3.18168e-06
3.05528e-06
2.94153e-06
2.75732e-06
2.71021e-06
2.74686e-06
2.97535e-06
3.42329e-06
3.55321e-06
3.69535e-06
3.82695e-06
4.21177e-06
4.75159e-06
5.19248e-06
4.98725e-06
4.33404e-06
4.27947e-06
4.51407e-06
3.34344e-06
3.34211e-06
3.40547e-06
4.27046e-06
2.80233e-06
-1.89655e-06
1.65097e-05
1.29877e-05
2.34045e-06
5.60309e-07
-1.73073e-06
1.63423e-06
-4.70351e-07
-2.71917e-06
8.41557e-07
8.45186e-07
1.11689e-06
9.95319e-07
9.34349e-07
1.02193e-06
1.05076e-06
1.59232e-06
5.7423e-07
8.74062e-07
1.37527e-06
8.14979e-07
1.25339e-06
9.46633e-07
9.83527e-07
7.21762e-07
5.47639e-07
2.58783e-07
-1.47321e-07
-7.2784e-07
-1.42618e-06
-2.10397e-06
-2.74341e-06
-3.15129e-06
-3.492e-06
-3.48077e-06
-3.84626e-06
-3.80619e-06
-4.02882e-06
-2.79117e-06
-7.69508e-07
-5.65943e-06
-2.55833e-06
4.21897e-06
5.24667e-06
6.46483e-06
6.00357e-06
6.02798e-06
8.49583e-07
-1.3942e-06
5.06131e-07
-1.68416e-06
-8.94047e-08
1.49146e-06
2.29434e-06
2.97103e-06
2.95331e-06
3.00683e-06
2.77287e-06
2.67065e-06
2.48741e-06
2.45092e-06
2.4724e-06
2.47879e-06
2.44159e-06
2.45631e-06
2.56291e-06
2.69969e-06
2.81078e-06
2.74349e-06
2.01408e-06
5.23449e-07
-4.29246e-07
8.83428e-07
1.44774e-07
-7.8018e-07
-2.47211e-06
-2.62313e-06
-4.41789e-06
-1.6777e-05
6.02572e-06
-5.46739e-06
9.11444e-07
3.75121e-07
1.0229e-06
-2.12841e-06
-4.19073e-08
2.17383e-06
-3.77114e-07
2.17335e-08
2.92392e-07
3.66875e-07
4.58121e-07
5.61726e-07
1.34077e-06
2.99176e-07
7.5178e-07
8.31392e-07
3.49861e-07
9.99643e-07
8.79459e-07
1.14075e-06
1.04796e-06
4.71618e-07
2.99742e-07
-2.32433e-07
-3.11726e-07
-8.0017e-07
-8.79081e-07
-1.1876e-06
-1.00946e-06
-9.26566e-07
-5.2653e-07
-3.50035e-07
-2.99128e-07
-4.19993e-07
5.57252e-07
3.10451e-06
4.65291e-06
-5.15558e-06
8.03553e-07
4.30489e-06
5.40269e-06
5.79624e-06
5.77848e-06
2.41428e-06
3.6183e-06
6.66964e-07
-3.49223e-06
-5.20769e-07
5.66114e-07
1.61453e-06
2.50251e-06
2.83379e-06
2.94273e-06
2.84266e-06
2.71094e-06
2.57163e-06
2.49827e-06
2.50695e-06
2.63206e-06
2.92647e-06
3.06986e-06
3.11779e-06
3.21334e-06
3.44478e-06
3.86771e-06
4.14335e-06
4.06298e-06
3.59387e-06
3.59513e-06
3.55299e-06
3.05488e-06
2.78636e-06
2.76427e-06
2.94728e-06
1.39124e-06
-3.11549e-06
1.14203e-05
6.25584e-06
1.62005e-06
7.13711e-08
-1.44597e-06
1.28674e-06
5.20373e-08
-1.17789e-06
1.22193e-06
9.77211e-07
7.69499e-07
5.1319e-07
3.69599e-07
9.93336e-07
5.12885e-07
8.44637e-07
2.77011e-07
4.74465e-07
8.72452e-07
1.35372e-07
9.40077e-07
4.61266e-07
5.93498e-07
5.48273e-07
2.13633e-07
6.35017e-08
-2.75511e-07
-6.31391e-07
-1.11577e-06
-1.59401e-06
-2.0305e-06
-2.37831e-06
-2.60494e-06
-2.70189e-06
-2.97808e-06
-2.93033e-06
-3.00668e-06
-1.96999e-06
-5.10373e-07
-4.27898e-06
-1.7646e-06
3.47097e-06
4.04252e-06
5.28274e-06
4.78349e-06
5.41678e-06
9.51023e-08
-6.24204e-07
7.10262e-07
-1.12301e-06
2.10878e-07
1.37327e-06
2.22528e-06
2.57096e-06
2.72924e-06
2.65629e-06
2.57596e-06
2.44065e-06
2.34894e-06
2.29667e-06
2.34175e-06
2.35822e-06
2.33279e-06
2.34266e-06
2.44024e-06
2.5772e-06
2.67293e-06
2.65581e-06
2.27653e-06
1.47242e-06
8.50425e-07
1.1986e-06
7.45608e-07
7.77316e-08
-1.17202e-06
-2.00598e-06
-4.02415e-06
-1.43679e-05
7.35579e-06
-1.92052e-06
6.42038e-07
1.43455e-07
6.37941e-07
-1.60911e-06
4.71618e-07
2.11191e-06
2.63223e-07
2.7733e-07
1.56248e-07
3.68553e-08
2.72766e-07
3.93768e-07
7.40622e-07
1.29991e-07
3.1607e-07
6.82837e-07
-2.64826e-07
7.08464e-07
-4.89537e-07
7.73717e-07
2.49847e-07
3.48766e-07
-2.69786e-08
-2.63221e-07
-5.66525e-07
-7.53777e-07
-1.0453e-06
-1.17578e-06
-1.26686e-06
-1.13946e-06
-1.02272e-06
-7.17843e-07
-7.59272e-07
-3.79684e-07
4.88815e-07
2.51782e-06
4.361e-06
-4.51923e-06
-5.44115e-07
3.64352e-06
4.63879e-06
4.72206e-06
4.77102e-06
1.15753e-06
3.59192e-06
4.11985e-07
-2.96798e-06
-1.95421e-07
4.13287e-07
1.45506e-06
2.06305e-06
2.43407e-06
2.52308e-06
2.50686e-06
2.40817e-06
2.30798e-06
2.23305e-06
2.22265e-06
2.26761e-06
2.44905e-06
2.56381e-06
2.57055e-06
2.58484e-06
2.72897e-06
2.99326e-06
3.22515e-06
3.19522e-06
2.98698e-06
2.98436e-06
2.92953e-06
2.70879e-06
2.44832e-06
2.38797e-06
2.30633e-06
7.58765e-07
-2.67139e-06
8.45321e-06
2.59867e-06
1.08541e-06
-1.51434e-07
-1.41436e-06
1.10232e-06
2.26545e-07
-3.46655e-07
1.41213e-06
1.01368e-06
5.90182e-07
2.43535e-07
3.40114e-07
7.39019e-07
3.67145e-07
3.47787e-07
3.14615e-07
-2.18425e-09
4.6482e-07
-5.59809e-07
6.44027e-07
-3.672e-07
8.57014e-08
-8.24721e-08
-2.92068e-08
-2.03517e-07
-3.70324e-07
-6.33019e-07
-9.11929e-07
-1.25263e-06
-1.54451e-06
-1.82612e-06
-1.99411e-06
-2.15053e-06
-2.35095e-06
-2.3108e-06
-2.30821e-06
-1.38776e-06
-5.04855e-07
-3.35568e-06
-1.29689e-06
2.76709e-06
2.97758e-06
4.34915e-06
3.50337e-06
4.85141e-06
-2.00352e-07
-5.02122e-07
1.0955e-06
-1.11934e-06
6.53495e-08
9.47453e-07
1.66663e-06
2.05992e-06
2.23014e-06
2.25952e-06
2.2113e-06
2.13524e-06
2.06081e-06
2.0154e-06
2.04587e-06
2.06339e-06
2.04255e-06
2.01879e-06
2.09439e-06
2.19996e-06
2.28349e-06
2.2842e-06
2.10465e-06
1.69983e-06
1.34989e-06
1.33986e-06
1.01677e-06
5.28427e-07
-4.35036e-07
-1.44327e-06
-3.62156e-06
-1.13692e-05
7.69582e-06
5.34248e-07
4.89188e-07
-1.05703e-07
4.28406e-07
-1.21327e-06
6.84847e-07
2.16042e-06
6.0849e-07
3.94506e-07
4.91614e-08
-9.47481e-08
1.88163e-07
2.95531e-07
6.65222e-07
2.52314e-08
3.17043e-07
1.95172e-07
2.07795e-08
4.33585e-07
-3.50906e-07
4.86334e-08
-2.4114e-07
1.31671e-07
-1.11366e-07
-3.34381e-07
-5.52631e-07
-7.45446e-07
-9.3113e-07
-1.10348e-06
-1.19344e-06
-1.20727e-06
-1.13557e-06
-9.83495e-07
-9.33475e-07
-4.80887e-07
2.95048e-07
1.93379e-06
3.5136e-06
-3.66389e-06
-1.24071e-06
2.77643e-06
4.0455e-06
3.62423e-06
3.88795e-06
6.80184e-07
3.13426e-06
6.41981e-07
-2.52618e-06
-2.65445e-07
2.13342e-07
8.68052e-07
1.48181e-06
1.84182e-06
2.02027e-06
2.06295e-06
2.02917e-06
1.95968e-06
1.89761e-06
1.87272e-06
1.87405e-06
1.96586e-06
2.05793e-06
2.02616e-06
1.9996e-06
2.05685e-06
2.22202e-06
2.38941e-06
2.42029e-06
2.37914e-06
2.39268e-06
2.38166e-06
2.28405e-06
2.12483e-06
2.05612e-06
1.92488e-06
3.68974e-07
-1.49464e-06
6.52505e-06
9.18268e-07
7.13753e-07
-2.9178e-07
-1.26755e-06
9.06855e-07
4.53267e-07
5.56726e-08
1.47595e-06
9.47026e-07
4.5848e-07
1.35273e-07
3.13765e-07
6.43401e-07
1.43549e-07
6.53789e-07
2.22599e-07
2.06226e-07
2.64817e-07
1.39837e-07
1.91235e-07
-5.25785e-07
3.40856e-08
-5.33036e-07
-2.67562e-07
-2.97503e-07
-4.44642e-07
-5.96954e-07
-7.78099e-07
-9.86937e-07
-1.19992e-06
-1.40904e-06
-1.55604e-06
-1.72981e-06
-1.86113e-06
-1.87261e-06
-1.79338e-06
-1.01667e-06
-6.6023e-07
-2.76712e-06
-1.09306e-06
2.26701e-06
2.26398e-06
3.47342e-06
2.8481e-06
4.11767e-06
-4.09784e-07
-2.17287e-07
8.74271e-07
-9.44992e-07
-3.27279e-07
4.5689e-07
1.05331e-06
1.47466e-06
1.70068e-06
1.79503e-06
1.79936e-06
1.75795e-06
1.70425e-06
1.65828e-06
1.66924e-06
1.68389e-06
1.65677e-06
1.61147e-06
1.65163e-06
1.73199e-06
1.79802e-06
1.81359e-06
1.74466e-06
1.55062e-06
1.36665e-06
1.24714e-06
1.01837e-06
6.4054e-07
-5.98446e-08
-1.02567e-06
-3.21048e-06
-8.08784e-06
6.76358e-06
1.87469e-06