/*--------------------------------*- C++ -*----------------------------------*\
| =========                 |                                                 |
| \\      /  F ield         | OpenFOAM: The Open Source CFD Toolbox           |
|  \\    /   O peration     | Version:  2312                                  |
|   \\  /    A nd           | Website:  www.openfoam.com                      |
|    \\/     M anipulation  |                                                 |
\*---------------------------------------------------------------------------*/
FoamFile
{
    version     2.0;
    format      ascii;
    arch        "LSB;label=32;scalar=64";
    class       volScalarField;
    location    "150";
    object      magR;
}
// * * * * * * * * * * * * * * * * * * * * * * * * * * * * * * * * * * * * * //

dimensions      [0 2 -2 0 0 0 0];

internalField   nonuniform List<scalar> 
10720
(
0.0222696
0.0260176
0.0308161
0.0373281
0.0450584
0.054909
0.0675164
0.08315
0.102995
0.128316
0.160881
0.204079
0.261948
0.341483
0.454151
0.619824
0.870033
1.26903
1.91697
3.07292
5.13587
9.45678
18.8534
42.5166
53.698
53.4401
52.0332
51.9638
52.3401
52.0932
50.906
48.8917
46.1153
42.6192
38.3197
33.2731
26.6484
19.9103
6.49108
0.0189273
0.0162107
0.0131749
0.0105686
0.00811283
0.005905
0.00415276
0.00316401
0.00360613
0.00504948
0.00754786
0.0113398
0.0168913
0.0249048
0.0362675
0.0523565
0.0755149
0.110101
0.164241
0.25238
0.404256
0.671781
1.18819
2.17025
4.35526
8.85677
19.9798
40.2906
56.0213
62.5816
64.4064
64.6832
64.2858
63.3581
61.947
60.1305
57.4768
54.3979
44.65
0.00355127
0.00353323
0.00349346
0.0033942
0.00324054
0.00306268
0.00285218
0.00261508
0.00237975
0.00214735
0.00192888
0.00175319
0.00169256
0.00181213
0.00226496
0.00344834
0.00634822
0.013247
0.0301282
0.0764241
0.200487
0.603966
1.63047
5.34345
11.179
17.423
23.4402
28.2421
30.3058
28.9847
25.3331
21.1141
17.5
14.6971
12.5633
10.9032
9.74782
8.68827
9.55945
0.00351823
0.00346847
0.0033708
0.00322678
0.00302877
0.00276681
0.00246828
0.00218717
0.00191027
0.00163213
0.00137284
0.00114958
0.00095992
0.000797937
0.000660226
0.000544292
0.00044604
0.000362992
0.000290155
0.000223546
0.000157399
9.25239e-05
3.2169e-05
4.96733e-06
2.9986e-05
0.00216147
0.0122013
0.0939038
0.303098
0.580891
0.859597
1.10303
1.30628
1.48388
1.64933
1.81981
2.00018
2.40762
3.35401
0.00238641
0.002365
0.00230933
0.00222519
0.00213693
0.00203963
0.00194081
0.00185159
0.00177457
0.00171401
0.00166783
0.00163648
0.00162549
0.00163174
0.00164493
0.00161173
0.0014131
0.00125949
0.00051352
0.00716559
0.00133427
0.0031674
0.00175819
0.00423898
0.0790541
0.345202
0.996486
2.44955
5.30661
9.61946
14.3497
17.6581
18.4387
17.2313
15.2321
13.1701
11.4997
9.64684
10.957
0.00240626
0.00240431
0.00239823
0.0023565
0.00227978
0.00214699
0.00196851
0.00177269
0.00159
0.00139501
0.00118739
0.000988194
0.000810003
0.000656201
0.000529439
0.000427602
0.000348706
0.000289207
0.000246238
0.000215664
0.000194867
0.000181699
0.000174886
0.000171744
0.00017238
0.000171779
0.000181817
0.000104421
0.000901165
0.00550269
0.0151599
0.0321632
0.0729878
0.151198
0.26478
0.402085
0.550187
0.652745
1.12138
0.00200575
0.00200999
0.0019999
0.00198288
0.00194851
0.0018974
0.00183371
0.00175437
0.00166375
0.00156354
0.0014563
0.00134433
0.00122809
0.00110855
0.000988048
0.0008617
0.000732294
0.00062025
0.000482312
0.000319519
8.86823e-06
0.000231429
0.00021658
0.00233618
0.0156436
0.0375157
0.0685009
0.0434464
0.0229164
0.116408
0.773835
2.64382
5.92102
9.51756
11.8824
12.5273
12.2042
10.9606
11.9551
0.00198434
0.00195228
0.00190229
0.00184197
0.00176535
0.00166367
0.0015458
0.00142213
0.00129038
0.0011463
0.000999666
0.000863155
0.000742333
0.000637752
0.000549266
0.000475104
0.000414087
0.000364339
0.000324432
0.000291937
0.000265527
0.000243314
0.000223346
0.000202227
0.000180439
0.000162379
0.000148675
0.000139243
0.000125302
0.000114693
7.12451e-05
5.05897e-05
0.000437776
0.000708423
0.00306585
0.0155858
0.0499329
0.123828
0.446857
0.00151
0.00150693
0.00149477
0.00147329
0.00144054
0.00139617
0.0013425
0.00128037
0.0012118
0.00114086
0.00106995
0.00100175
0.000939067
0.000884171
0.000837987
0.000800731
0.000763199
0.000718243
0.000667913
0.000616088
0.000448567
0.000245684
3.44164e-08
9.94383e-06
1.35547e-07
0
0
0.0158248
0.0252128
0.000167117
0.00831649
0.0553649
0.0737581
0.87456
3.2033
6.48596
9.27209
10.4864
12.1529
0.00150593
0.00149523
0.00147396
0.00143985
0.00139115
0.00132286
0.00124209
0.00115582
0.0010627
0.000960371
0.000854459
0.000751081
0.000653794
0.000564208
0.000483736
0.000413043
0.000352333
0.000301327
0.00025945
0.000225424
0.000198084
0.000175917
0.000157304
0.000139572
0.000121478
0.000104721
9.15127e-05
8.24677e-05
7.88927e-05
7.23926e-05
9.16913e-05
1.56021e-05
0.000154172
1.6451e-10
0.00172682
0.00336897
0.0012573
0.00398209
0.0868807
0.00123512
0.00124015
0.00123946
0.00123469
0.00122243
0.00120263
0.00117614
0.00114201
0.00110092
0.00105399
0.00100165
0.000945105
0.000885723
0.000824561
0.000762787
0.000699823
0.000631441
0.000560123
0.000492348
0.000432254
0.000385264
0.000333212
0.000234501
0.000131367
1.61364e-06
7.46553e-06
4.68052e-06
3.71165e-07
0
4.44715e-06
0.00108631
0.0170555
0.079675
0.0600046
0.115255
0.792448
3.50211
7.25575
10.903
0.00122411
0.00120898
0.00118692
0.00115737
0.00111864
0.00106839
0.00101152
0.000950077
0.000882332
0.000807861
0.000730154
0.000652959
0.000579071
0.000510121
0.000447379
0.000391713
0.000343382
0.000302219
0.000267737
0.000239044
0.000215125
0.000194684
0.000176282
0.000157893
0.000138672
0.000120291
0.000104226
9.0772e-05
7.94883e-05
7.00583e-05
6.20468e-05
5.39166e-05
4.364e-05
2.56217e-05
1.68789e-06
5.19962e-07
0.000215828
0.000920016
0.0099978
0.000999731
0.00100396
0.00100455
0.00100181
0.00099378
0.000979923
0.000960545
0.000935108
0.00090383
0.000867566
0.00082694
0.000782957
0.000736934
0.000690103
0.000643677
0.000598937
0.000558253
0.000520968
0.000483614
0.000444567
0.000406078
0.000373202
0.000340686
0.000298935
0.000228485
0.000143084
8.12887e-05
5.42741e-06
4.75701e-06
1.41921e-06
0
0
0
0.0116067
0.0699244
0.0941263
0.264073
2.75745
7.76387
0.000991551
0.00098059
0.000964623
0.000942282
0.000912814
0.000875676
0.00083456
0.00078941
0.000739208
0.000684493
0.000627076
0.000569052
0.000512141
0.000457495
0.000406173
0.00035904
0.000316578
0.000279054
0.000246478
0.000218478
0.000194519
0.000173792
0.000155253
0.000137426
0.000119512
0.000102483
8.75032e-05
7.49169e-05
6.44632e-05
5.60097e-05
4.97188e-05
4.57101e-05
4.30302e-05
3.98142e-05
3.65919e-05
1.56833e-05
1.53068e-06
1.08573e-07
0.000346579
0.000827959
0.000833479
0.000836736
0.000837915
0.000835605
0.000829311
0.000819283
0.000804838
0.000785945
0.00076301
0.00073601
0.00070546
0.000671952
0.000636028
0.000598347
0.000559701
0.000519997
0.000477859
0.00043474
0.000393264
0.000355802
0.000324139
0.000300233
0.000279331
0.000259515
0.000225891
0.000187733
0.000136939
8.66934e-05
2.56121e-05
4.4794e-06
1.00827e-06
0
0
0
0.0213456
0.0385048
0.375666
3.83502
0.000819574
0.000809566
0.000796116
0.000777841
0.000754636
0.000726412
0.000695807
0.000661913
0.000624172
0.00058338
0.000540362
0.000496421
0.000452633
0.000409791
0.000368743
0.000330315
0.000295016
0.000263265
0.000235217
0.000210715
0.00018936
0.000170535
0.000153397
0.000136833
0.000120243
0.000104345
9.00489e-05
7.76192e-05
6.67973e-05
5.73452e-05
4.92009e-05
4.22018e-05
3.6156e-05
3.10164e-05
2.73875e-05
2.38642e-05
1.60933e-05
1.79165e-06
2.63101e-05
0.000690516
0.000695895
0.000699822
0.000702203
0.000702138
0.000699146
0.000693291
0.000683963
0.000671068
0.000654716
0.000634861
0.000611777
0.000585863
0.000557526
0.000527388
0.000495957
0.000463859
0.000432272
0.000401484
0.000371316
0.000342067
0.000314588
0.000289994
0.000266999
0.000244381
0.00022012
0.000194395
0.00017285
0.000149817
0.00011877
8.40425e-05
2.14733e-05
3.35874e-06
6.51337e-10
0
0
0.00759103
0.0574726
1.18201
0.000683116
0.000674661
0.000663736
0.000648833
0.000630463
0.000608774
0.000585403
0.000559446
0.000530726
0.000499902
0.000467372
0.000433881
0.000400077
0.000366449
0.00033358
0.000302088
0.000272466
0.000245103
0.000220251
0.00019795
0.00017803
0.000160104
0.000143585
0.000127725
0.000112101
9.71664e-05
8.36661e-05
7.18946e-05
6.17031e-05
5.2916e-05
4.54959e-05
3.94965e-05
3.49052e-05
3.16617e-05
2.97415e-05
2.98708e-05
3.17148e-05
3.19191e-05
1.15101e-06
0.000581887
0.000587187
0.000591621
0.00059499
0.000596619
0.00059622
0.000593736
0.000588655
0.000580873
0.000570383
0.000557023
0.000540915
0.000522251
0.000501235
0.000478205
0.000453488
0.000427599
0.000400588
0.000372443
0.000344146
0.000317038
0.000292146
0.00026988
0.000249048
0.000227185
0.000203495
0.000179445
0.00015905
0.000143679
0.000132042
0.000121436
9.58474e-05
6.13095e-05
1.35534e-08
2.30437e-07
0
0
0.0166815
0.276491
0.000575105
0.000567742
0.000558596
0.000546224
0.000531432
0.000514559
0.000496321
0.000476103
0.000454016
0.000430441
0.000405582
0.000379892
0.000353703
0.000327277
0.000301043
0.00027545
0.000250875
0.000227718
0.000206231
0.000186543
0.000168616
0.000152212
0.000136927
0.000122259
0.000107885
9.41338e-05
8.15869e-05
7.05042e-05
6.07785e-05
5.22486e-05
4.48559e-05
3.85623e-05
3.32819e-05
2.90978e-05
2.59765e-05
2.52229e-05
2.45065e-05
4.04367e-05
1.54271e-05
0.000493896
0.00049889
0.000503374
0.000507107
0.000509565
0.000510585
0.00051
0.000507465
0.000502794
0.000495956
0.000486748
0.000475195
0.000461366
0.000445347
0.000427369
0.000407704
0.000386624
0.000364585
0.000342026
0.00031933
0.000297106
0.000275846
0.000255869
0.000236631
0.000216458
0.000194352
0.000171534
0.00015069
0.000133989
0.000121563
0.000113093
0.000106579
9.93021e-05
7.19793e-05
4.67031e-06
2.42713e-07
0
0.00134741
0.0847344
0.000487804
0.000481416
0.000473749
0.000463423
0.000451379
0.000438062
0.000423591
0.000407628
0.000390453
0.000372248
0.000353068
0.000333205
0.000312837
0.000292079
0.000271165
0.000250412
0.0002301
0.000210537
0.000191993
0.000174622
0.000158449
0.00014337
0.000129142
0.000115443
0.000102083
8.93082e-05
7.75653e-05
6.71035e-05
5.78803e-05
4.97902e-05
4.28018e-05
3.69235e-05
3.21509e-05
2.85401e-05
2.60013e-05
2.5559e-05
2.5065e-05
3.50383e-05
4.22317e-05
0.000422043
0.000426712
0.000431097
0.00043495
0.000437904
0.000439817
0.000440556
0.000439797
0.000437399
0.000433298
0.000427291
0.000419351
0.000409471
0.00039767
0.000384058
0.000368792
0.000352077
0.000334269
0.000315453
0.000295947
0.000276492
0.000257718
0.000239878
0.000222553
0.000204543
0.000184968
0.000164594
0.000145431
0.00012911
0.000115869
0.000105335
9.78679e-05
9.28515e-05
9.4484e-05
7.58209e-05
3.76262e-06
2.71016e-09
0.000465769
0.0289998
0.000416577
0.000410965
0.000404463
0.000395808
0.00038591
0.000375203
0.000363584
0.000350859
0.000337357
0.000323135
0.000308218
0.000292769
0.000276861
0.000260495
0.000243835
0.000227063
0.000210352
0.000193953
0.000178074
0.000162899
0.00014851
0.000134873
0.000121838
0.000109218
9.69403e-05
8.51868e-05
7.43079e-05
6.45247e-05
5.5832e-05
4.81547e-05
4.14609e-05
3.57532e-05
3.1001e-05
2.72636e-05
2.45417e-05
2.36966e-05
2.35849e-05
2.97277e-05
4.66e-05
0.000362671
0.000366983
0.000371157
0.000374956
0.000378101
0.000380493
0.000382027
0.00038241
0.000381515
0.000379274
0.000375495
0.000370127
0.000363118
0.000354426
0.000344113
0.000332267
0.00031901
0.000304617
0.000289277
0.000273238
0.000256937
0.000240852
0.000225153
0.000209585
0.000193369
0.000175903
0.000157732
0.000140444
0.000125368
0.000112729
0.000102027
9.32633e-05
8.62077e-05
8.31459e-05
8.9137e-05
6.74625e-05
2.06602e-06
7.06132e-05
0.00828064
0.000357794
0.00035285
0.000347278
0.000339986
0.000331794
0.000323063
0.000313628
0.000303388
0.000292664
0.000281463
0.000269767
0.00025766
0.000245167
0.000232254
0.000218962
0.000205412
0.000191709
0.000178026
0.000164524
0.000151358
0.000138628
0.00012635
0.00011446
0.00010288
9.16007e-05
8.07836e-05
7.07005e-05
6.15524e-05
5.33663e-05
4.60998e-05
3.97387e-05
3.43024e-05
2.97896e-05
2.62563e-05
2.37046e-05
2.28149e-05
2.27857e-05
2.73209e-05
4.2815e-05
0.000313204
0.000317148
0.000321063
0.000324715
0.000327893
0.000330546
0.000332551
0.000333672
0.000333811
0.00033288
0.000330725
0.000327264
0.000322448
0.000316214
0.000308563
0.000299526
0.000289171
0.000277692
0.000265248
0.000251957
0.000238143
0.000224286
0.000210537
0.000196719
0.000182281
0.000166787
0.000150641
0.000135099
0.000121322
0.000109591
9.95445e-05
9.09669e-05
8.37191e-05
7.79826e-05
7.58122e-05
9.10272e-05
2.89856e-05
2.32146e-06
0.00125647
0.000308837
0.000304487
0.000299666
0.000293486
0.000286661
0.000279454
0.000271695
0.000263401
0.000254802
0.000245897
0.000236649
0.00022711
0.000217258
0.000207022
0.00019642
0.000185486
0.00017427
0.000162895
0.000151477
0.000140136
0.000128958
0.000117998
0.000107247
9.67066e-05
8.64131e-05
7.65055e-05
6.72107e-05
5.87038e-05
5.1032e-05
4.41795e-05
3.81428e-05
3.29462e-05
2.85865e-05
2.51187e-05
2.2558e-05
2.15409e-05
2.13854e-05
2.52473e-05
3.842e-05
0.000271657
0.000275237
0.000278875
0.000282312
0.00028542
0.00028817
0.00029042
0.000291995
0.000292813
0.000292783
0.000291776
0.000289717
0.00028653
0.000282146
0.000276531
0.000269697
0.000261681
0.000252579
0.000242567
0.000231716
0.000220198
0.000208419
0.000196512
0.000184356
0.000171584
0.000157889
0.000143572
0.000129622
0.000117039
0.000106164
9.67917e-05
8.87415e-05
8.19009e-05
7.65256e-05
7.07125e-05
7.68467e-05
7.94927e-05
6.4885e-08
0.00018857
0.000267739
0.000263905
0.000259714
0.000254437
0.000248713
0.000242701
0.000236268
0.000229489
0.000222539
0.000215401
0.000208038
0.000200464
0.000192649
0.000184513
0.000176031
0.000167212
0.000158058
0.00014863
0.000139008
0.000129283
0.00011954
0.000109836
0.000100191
9.06368e-05
8.12637e-05
7.22144e-05
6.36698e-05
5.57811e-05
4.86103e-05
4.21641e-05
3.64509e-05
3.15035e-05
2.73298e-05
2.39875e-05
2.14904e-05
2.04089e-05
2.01435e-05
2.33303e-05
3.45757e-05
0.000236511
0.000239758
0.000243106
0.000246306
0.000249291
0.000252025
0.000254386
0.000256228
0.000257484
0.000258071
0.000257874
0.000256819
0.000254842
0.000251863
0.000247855
0.000242785
0.000236666
0.000229535
0.000221555
0.000212739
0.000203186
0.000193216
0.000182969
0.000172374
0.000161165
0.000149129
0.0001365
0.000124047
0.000112613
0.000102566
9.38178e-05
8.62572e-05
7.98327e-05
7.47692e-05
7.04846e-05
6.52524e-05
9.41728e-05
2.13018e-06
0
0.000233011
0.000229607
0.000225952
0.000221419
0.000216588
0.000211525
0.000206145
0.000200561
0.000194897
0.000189129
0.00018322
0.000177176
0.000170949
0.000164451
0.000157654
0.000150523
0.000143051
0.000135256
0.000127183
0.000118891
0.000110444
0.000101902
9.33005e-05
8.47062e-05
7.62237e-05
6.79931e-05
6.01662e-05
5.28791e-05
4.62016e-05
4.0157e-05
3.47641e-05
3.0061e-05
2.60603e-05
2.2819e-05
2.03549e-05
1.91872e-05
1.88216e-05
2.14186e-05
3.11021e-05
0.000206598
0.00020954
0.000212597
0.000215562
0.000218382
0.000221033
0.00022341
0.000225389
0.000226902
0.00022789
0.00022825
0.000227917
0.00022684
0.000224934
0.000222157
0.000218469
0.00021386
0.000208342
0.000202031
0.000194938
0.000187103
0.000178742
0.000170004
0.000160851
0.000151092
0.000140573
0.000129483
0.000118421
0.000108088
9.88562e-05
9.07223e-05
8.362e-05
7.75849e-05
7.25569e-05
6.96792e-05
6.20572e-05
8.2884e-05
2.7571e-05
4.60095e-07
0.000203479
0.000200453
0.000197243
0.000193334
0.000189226
0.000184926
0.000180396
0.000175764
0.000171112
0.000166413
0.00016164
0.000156778
0.000151782
0.000146576
0.000141107
0.000135341
0.00012924
0.000122807
0.000116052
0.000109013
0.000101733
9.42564e-05
8.66293e-05
7.89351e-05
7.12933e-05
6.38302e-05
5.66855e-05
4.99777e-05
4.37795e-05
3.81278e-05
3.30502e-05
2.85891e-05
2.4764e-05
2.16328e-05
1.92147e-05
1.79757e-05
1.75216e-05
1.95957e-05
2.78919e-05
0.000181004
0.000183661
0.000186441
0.000189177
0.000191808
0.000194344
0.00019667
0.00019869
0.000200348
0.000201593
0.000202333
0.00020252
0.000202092
0.00020098
0.000199142
0.000196533
0.000193133
0.000188926
0.00018399
0.00017834
0.000171974
0.000165017
0.000157628
0.000149793
0.000141363
0.000132229
0.00012254
0.000112766
0.000103484
9.5052e-05
8.75311e-05
8.08911e-05
7.52128e-05
7.03579e-05
6.75052e-05
6.22795e-05
6.84105e-05
6.14891e-05
5.22316e-06
0.00017822
0.000175524
0.000172696
0.00016931
0.000165794
0.000162116
0.000158279
0.000154406
0.000150555
0.000146698
0.000142812
0.000138879
0.000134851
0.000130653
0.00012624
0.000121563
0.000116578
0.00011127
0.000105631
9.96729e-05
9.34261e-05
8.69267e-05
8.02117e-05
7.33567e-05
6.64891e-05
5.97491e-05
5.32522e-05
4.71005e-05
4.13675e-05
3.60995e-05
3.1331e-05
2.71076e-05
2.3454e-05
2.04284e-05
1.80517e-05
1.67441e-05
1.62096e-05
1.78523e-05
2.49207e-05
0.000158997
0.000161388
0.00016392
0.000166423
0.00016887
0.000171261
0.000173503
0.000175501
0.000177222
0.000178612
0.000179599
0.000180134
0.000180173
0.00017965
0.00017853
0.00017676
0.000174313
0.000171169
0.000167355
0.000162905
0.000157783
0.000152049
0.00014586
0.000139213
0.000131992
0.000124111
0.000115693
0.000107104
9.88177e-05
9.11643e-05
8.42488e-05
7.80816e-05
7.27345e-05
6.81966e-05
6.49061e-05
6.20749e-05
6.00928e-05
6.95083e-05
2.93209e-05
0.00015651
0.000154103
0.000151602
0.00014866
0.000145627
0.000142465
0.000139196
0.000135937
0.000132723
0.000129536
0.00012635
0.000123144
0.000119875
0.000116474
0.000112894
0.00010909
0.000105012
0.00010063
9.59293e-05
9.09057e-05
8.55652e-05
7.99313e-05
7.40383e-05
6.79666e-05
6.18359e-05
5.57724e-05
4.98825e-05
4.42582e-05
3.89716e-05
3.40746e-05
2.9607e-05
2.56163e-05
2.21319e-05
1.92119e-05
1.68786e-05
1.55117e-05
1.49051e-05
1.61892e-05
2.21796e-05
0.00013999
0.000142141
0.000144438
0.000146727
0.000148987
0.000151227
0.000153352
0.000155294
0.000157017
0.000158477
0.000159613
0.000160387
0.000160759
0.000160674
0.000160091
0.000158967
0.000157267
0.000154967
0.000152062
0.000148598
0.000144525
0.000139851
0.000134712
0.000129123
0.000122986
0.000116236
0.000108966
0.000101463
9.4111e-05
8.72088e-05
8.08855e-05
7.51903e-05
7.01725e-05
6.59564e-05
6.24423e-05
6.05489e-05
5.67077e-05
6.36687e-05
5.01218e-05
0.000137768
0.000135617
0.000133399
0.000130836
0.000128199
0.000125468
0.000122667
0.000119903
0.000117203
0.000114549
0.000111917
0.000109287
0.000106616
0.000103846
0.000100931
9.78246e-05
9.44801e-05
9.08632e-05
8.69442e-05
8.27112e-05
7.81629e-05
7.33051e-05
6.81594e-05
6.28016e-05
5.73467e-05
5.19089e-05
4.65867e-05
4.14621e-05
3.66034e-05
3.20648e-05
2.78898e-05
2.41259e-05
2.0808e-05
1.7992e-05
1.5702e-05
1.42822e-05
1.36109e-05
1.46094e-05
1.96728e-05
0.000123509
0.000125447
0.000127527
0.000129613
0.000131693
0.000133777
0.000135774
0.000137632
0.000139319
0.000140796
0.000142013
0.000142938
0.000143536
0.00014376
0.000143575
0.000142942
0.000141823
0.000140191
0.00013803
0.000135381
0.000132182
0.000128416
0.000124191
0.000119534
0.000114365
0.000108624
0.000102383
9.58675e-05
8.93861e-05
8.32022e-05
7.74556e-05
7.22224e-05
6.75428e-05
6.35949e-05
6.01345e-05
5.82326e-05
5.50514e-05
5.65987e-05
5.62943e-05
0.000121524
0.000119601
0.000117632
0.00011539
0.000113086
0.000110712
0.000108301
0.000105943
0.00010366
0.000101434
9.92415e-05
9.7065e-05
9.48691e-05
9.25989e-05
9.02133e-05
8.76668e-05
8.49148e-05
8.19238e-05
7.86598e-05
7.50995e-05
7.12294e-05
6.70526e-05
6.25813e-05
5.7874e-05
5.30329e-05
4.81719e-05
4.33796e-05
3.8726e-05
3.42743e-05
3.00791e-05
2.61862e-05
2.26424e-05
1.94877e-05
1.67737e-05
1.45283e-05
1.3064e-05
1.23348e-05
1.31071e-05
1.73826e-05
0.000109169
0.000110912
0.000112798
0.000114695
0.000116606
0.000118532
0.000120396
0.000122155
0.000123779
0.000125236
0.000126482
0.000127493
0.00012824
0.000128681
0.00012879
0.000128526
0.000127856
0.000126755
0.000125192
0.000123198
0.00012072
0.000117726
0.000114291
0.000110446
0.000106132
0.000101288
9.59667e-05
9.03435e-05
8.46665e-05
7.91617e-05
7.39724e-05
6.91881e-05
6.48547e-05
6.11391e-05
5.7856e-05
5.57053e-05
5.3354e-05
5.17425e-05
5.4245e-05
0.000107399
0.000105674
0.000103923
0.000101954
9.99338e-05
9.78632e-05
9.57761e-05
9.37522e-05
9.18073e-05
8.99244e-05
8.80883e-05
8.62767e-05
8.44568e-05
8.25826e-05
8.0617e-05
7.85214e-05
7.62507e-05
7.37703e-05
7.1047e-05
6.80536e-05
6.47706e-05
6.11869e-05
5.73086e-05
5.31848e-05
4.89086e-05
4.45797e-05
4.02765e-05
3.60624e-05
3.19945e-05
2.81261e-05
2.4504e-05
2.11738e-05
1.81778e-05
1.55638e-05
1.33637e-05
1.18624e-05
1.10847e-05
1.16841e-05
1.53009e-05
9.66535e-05
9.8223e-05
9.99285e-05
0.000101652
0.000103403
0.000105176
0.000106909
0.000108557
0.000110104
0.000111515
0.000112758
0.00011381
0.000114648
0.000115237
0.000115554
0.000115563
0.000115235
0.000114543
0.000113456
0.000111992
0.000110108
0.000107764
0.000105004
0.000101864
9.82967e-05
9.42426e-05
8.97364e-05
8.49154e-05
7.99756e-05
7.51085e-05
7.04514e-05
6.60996e-05
6.21089e-05
5.86178e-05
5.55278e-05
5.32067e-05
5.12273e-05
4.85342e-05
5.00385e-05
9.50741e-05
9.35279e-05
9.19667e-05
9.02313e-05
8.84536e-05
8.66414e-05
8.48245e-05
8.30785e-05
8.14114e-05
7.98087e-05
7.82558e-05
7.67354e-05
7.52161e-05
7.36605e-05
7.2034e-05
7.0298e-05
6.84158e-05
6.63547e-05
6.4079e-05
6.15601e-05
5.87758e-05
5.57082e-05
5.23542e-05
4.87537e-05
4.49861e-05
4.11422e-05
3.72873e-05
3.34811e-05
2.9774e-05
2.62163e-05
2.28535e-05
1.97292e-05
1.68866e-05
1.43704e-05
1.22164e-05
1.0685e-05
9.86562e-06
1.03398e-05
1.34192e-05
8.57004e-05
8.71128e-05
8.86543e-05
9.02219e-05
9.1819e-05
9.34479e-05
9.50489e-05
9.65867e-05
9.80424e-05
9.93925e-05
0.000100605
0.000101665
0.000102549
0.000103234
0.000103696
0.000103904
0.000103834
0.000103458
0.000102749
0.00010171
0.00010031
9.85104e-05
9.63223e-05
9.37882e-05
9.08659e-05
8.75005e-05
8.37125e-05
7.96075e-05
7.53373e-05
7.10632e-05
6.69101e-05
6.29749e-05
5.93163e-05
5.60522e-05
5.31349e-05
5.07609e-05
4.88191e-05
4.59682e-05
4.60046e-05
8.42873e-05
8.29053e-05
8.15099e-05
7.99766e-05
7.84077e-05
7.68152e-05
7.52274e-05
7.37107e-05
7.22722e-05
7.0898e-05
6.95775e-05
6.82929e-05
6.70166e-05
6.57139e-05
6.43559e-05
6.29113e-05
6.13452e-05
5.96261e-05
5.77207e-05
5.56004e-05
5.32402e-05
5.06175e-05
4.77226e-05
4.45848e-05
4.12723e-05
3.7864e-05
3.44226e-05
3.09935e-05
2.76236e-05
2.43593e-05
2.12433e-05
1.83168e-05
1.56231e-05
1.32027e-05
1.10949e-05
9.53952e-06
8.68567e-06
9.07234e-06
1.17218e-05
7.60902e-05
7.73612e-05
7.87535e-05
8.01784e-05
8.1633e-05
8.31256e-05
8.45995e-05
8.60253e-05
8.73886e-05
8.86657e-05
8.98326e-05
9.08759e-05
9.17768e-05
9.2516e-05
9.30719e-05
9.34229e-05
9.35429e-05
9.34077e-05
9.2993e-05
9.22897e-05
9.12855e-05
8.99302e-05
8.8221e-05
8.62001e-05
8.38348e-05
8.10687e-05
7.79108e-05
7.44403e-05
7.07749e-05
6.70458e-05
6.33661e-05
5.98277e-05
5.64893e-05
5.34549e-05
5.0695e-05
4.83415e-05
4.63223e-05
4.35345e-05
4.2507e-05
7.48251e-05
7.35888e-05
7.234e-05
7.09826e-05
6.95943e-05
6.81891e-05
6.67971e-05
6.54742e-05
6.42252e-05
6.30396e-05
6.19074e-05
6.0812e-05
5.97297e-05
5.86332e-05
5.74945e-05
5.62841e-05
5.49735e-05
5.35341e-05
5.19353e-05
5.01464e-05
4.81435e-05
4.59016e-05
4.3407e-05
4.06785e-05
3.77743e-05
3.47596e-05
3.16926e-05
2.86099e-05
2.55534e-05
2.25641e-05
1.9682e-05
1.69452e-05
1.43955e-05
1.20691e-05
1.00073e-05
8.43268e-06
7.54981e-06
7.88464e-06
1.02015e-05
6.76376e-05
6.87832e-05
7.00405e-05
7.13324e-05
7.26568e-05
7.40203e-05
7.53738e-05
7.66896e-05
7.79595e-05
7.91585e-05
8.02694e-05
8.12789e-05
8.21747e-05
8.29367e-05
8.35511e-05
8.39986e-05
8.42557e-05
8.43015e-05
8.41129e-05
8.36754e-05
8.29849e-05
8.1995e-05
8.06853e-05
7.90989e-05
7.7206e-05
7.49533e-05
7.23412e-05
6.94284e-05
6.63055e-05
6.30753e-05
5.98358e-05
5.66723e-05
5.36424e-05
5.08312e-05
4.82277e-05
4.59229e-05
4.38317e-05
4.11015e-05
3.94103e-05
6.65066e-05
6.53996e-05
6.42802e-05
6.30763e-05
6.1845e-05
6.06014e-05
5.9377e-05
5.82166e-05
5.71268e-05
5.60972e-05
5.51203e-05
5.41801e-05
5.32562e-05
5.23247e-05
5.13625e-05
5.03437e-05
4.92416e-05
4.80301e-05
4.66835e-05
4.51728e-05
4.34719e-05
4.15545e-05
3.94037e-05
3.70328e-05
3.4489e-05
3.18301e-05
2.91011e-05
2.63363e-05
2.357e-05
2.0838e-05
1.81776e-05
1.56227e-05
1.32115e-05
1.09778e-05
8.96254e-06
7.37222e-06
6.46401e-06
6.77657e-06
8.84474e-06
6.01888e-05
6.12212e-05
6.2357e-05
6.35268e-05
6.47308e-05
6.59748e-05
6.72134e-05
6.84254e-05
6.96014e-05
7.07213e-05
7.17686e-05
7.27342e-05
7.36075e-05
7.43722e-05
7.50177e-05
7.55259e-05
7.58778e-05
7.60562e-05
7.60387e-05
7.58099e-05
7.53671e-05
7.467e-05
7.3692e-05
7.24668e-05
7.09721e-05
6.91571e-05
6.70159e-05
6.45902e-05
6.19479e-05
5.91697e-05
5.63364e-05
5.35238e-05
5.07877e-05
4.8198e-05
4.57476e-05
4.35073e-05
4.13823e-05
3.86855e-05
3.65807e-05
5.91774e-05
5.81865e-05
5.71826e-05
5.61116e-05
5.50179e-05
5.39144e-05
5.28334e-05
5.18127e-05
5.08569e-05
4.99572e-05
4.91078e-05
4.82954e-05
4.75014e-05
4.67051e-05
4.58853e-05
4.50215e-05
4.40896e-05
4.30676e-05
4.19287e-05
4.06483e-05
3.92016e-05
3.75619e-05
3.57086e-05
3.3651e-05
3.14257e-05
2.90823e-05
2.66586e-05
2.41826e-05
2.16827e-05
1.9191e-05
1.67391e-05
1.43576e-05
1.20808e-05
9.93857e-06
7.97008e-06
6.36595e-06
5.43355e-06
5.75031e-06
7.64275e-06
5.3613e-05
5.45422e-05
5.55689e-05
5.66268e-05
5.77204e-05
5.88541e-05
5.99848e-05
6.10985e-05
6.21824e-05
6.32232e-05
6.42038e-05
6.51186e-05
6.59568e-05
6.67088e-05
6.7363e-05
6.79051e-05
6.83213e-05
6.85929e-05
6.87038e-05
6.86355e-05
6.8388e-05
6.79238e-05
6.72162e-05
6.62885e-05
6.51258e-05
6.3682e-05
6.19433e-05
5.99398e-05
5.77202e-05
5.53462e-05
5.28848e-05
5.03997e-05
4.79381e-05
4.55655e-05
4.32694e-05
4.11057e-05
3.89786e-05
3.63208e-05
3.39577e-05
5.27065e-05
5.182e-05
5.09202e-05
4.99657e-05
4.89926e-05
4.80125e-05
4.70543e-05
4.6153e-05
4.53107e-05
4.45203e-05
4.37775e-05
4.30702e-05
4.23824e-05
4.16972e-05
4.09956e-05
4.02586e-05
3.94663e-05
3.85982e-05
3.76319e-05
3.65438e-05
3.531e-05
3.39056e-05
3.23085e-05
3.05227e-05
2.85779e-05
2.65147e-05
2.43647e-05
2.2151e-05
1.98964e-05
1.7628e-05
1.53728e-05
1.31573e-05
1.10116e-05
8.96058e-06
7.03966e-06
5.42194e-06
4.46251e-06
4.80776e-06
6.58539e-06
4.7797e-05
4.86344e-05
4.95605e-05
5.05178e-05
5.15097e-05
5.25404e-05
5.35722e-05
5.45915e-05
5.55882e-05
5.655e-05
5.74635e-05
5.83227e-05
5.9121e-05
5.98486e-05
6.04967e-05
6.10545e-05
6.15085e-05
6.18441e-05
6.20473e-05
6.21001e-05
6.20022e-05
6.17221e-05
6.12314e-05
6.05494e-05
5.9661e-05
5.85257e-05
5.71281e-05
5.54874e-05
5.36372e-05
5.16227e-05
4.94968e-05
4.73134e-05
4.51124e-05
4.29443e-05
4.08057e-05
3.87251e-05
3.66217e-05
3.40215e-05
3.15094e-05
4.6984e-05
4.61917e-05
4.53851e-05
4.45325e-05
4.36658e-05
4.27943e-05
4.19428e-05
4.11441e-05
4.0399e-05
3.97018e-05
3.90488e-05
3.84291e-05
3.78296e-05
3.72351e-05
3.66304e-05
3.59981e-05
3.53206e-05
3.45802e-05
3.37567e-05
3.28291e-05
3.17753e-05
3.05703e-05
2.91926e-05
2.76423e-05
2.59421e-05
2.41278e-05
2.22231e-05
2.02468e-05
1.82169e-05
1.61556e-05
1.40858e-05
1.2029e-05
1.00112e-05
8.05205e-06
6.18094e-06
4.54911e-06
3.55483e-06
3.95325e-06
5.66508e-06
4.26451e-05
4.34002e-05
4.42349e-05
4.51009e-05
4.60001e-05
4.69355e-05
4.78756e-05
4.88065e-05
4.97209e-05
5.06067e-05
5.14538e-05
5.22564e-05
5.30094e-05
5.37042e-05
5.43355e-05
5.48922e-05
5.53657e-05
5.57428e-05
5.60105e-05
5.6152e-05
5.61676e-05
5.60302e-05
5.57129e-05
5.52283e-05
5.45648e-05
5.36862e-05
5.25756e-05
5.12433e-05
4.97121e-05
4.80144e-05
4.61898e-05
4.42808e-05
4.23217e-05
4.03518e-05
3.83665e-05
3.63814e-05
3.43228e-05
3.18022e-05
2.92256e-05
4.19163e-05
4.12077e-05
4.04853e-05
3.97227e-05
3.89501e-05
3.81737e-05
3.7416e-05
3.6706e-05
3.60448e-05
3.54268e-05
3.48494e-05
3.43045e-05
3.37791e-05
3.32601e-05
3.27352e-05
3.21889e-05
3.16066e-05
3.09726e-05
3.02683e-05
2.94746e-05
2.85717e-05
2.75358e-05
2.63459e-05
2.49998e-05
2.35151e-05
2.19195e-05
2.0234e-05
1.84716e-05
1.66472e-05
1.47777e-05
1.28823e-05
1.09782e-05
9.08624e-06
7.22148e-06
5.4047e-06
3.75855e-06
2.71389e-06
3.19281e-06
4.87572e-06
3.80758e-05
3.87558e-05
3.95085e-05
4.02909e-05
4.11052e-05
4.1954e-05
4.28086e-05
4.36574e-05
4.44944e-05
4.53079e-05
4.60898e-05
4.68354e-05
4.75404e-05
4.81982e-05
4.88044e-05
4.93512e-05
4.98297e-05
5.0229e-05
5.05381e-05
5.07432e-05
5.08428e-05
5.08144e-05
5.0634e-05
5.03073e-05
4.9825e-05
4.91568e-05
4.82854e-05
4.72134e-05
4.59559e-05
4.45345e-05
4.29776e-05
4.13181e-05
3.95814e-05
3.77993e-05
3.59648e-05
3.40863e-05
3.20894e-05
2.9663e-05
2.70935e-05
3.74221e-05
3.67879e-05
3.61411e-05
3.54593e-05
3.47695e-05
3.40772e-05
3.34021e-05
3.27696e-05
3.2181e-05
3.16313e-05
3.11196e-05
3.06366e-05
3.01731e-05
2.97187e-05
2.92609e-05
2.87866e-05
2.82832e-05
2.77371e-05
2.71322e-05
2.64509e-05
2.56753e-05
2.47838e-05
2.37548e-05
2.25843e-05
2.12875e-05
1.98855e-05
1.83953e-05
1.68261e-05
1.51891e-05
1.34975e-05
1.17663e-05
1.00096e-05
8.2427e-06
6.47624e-06
4.72135e-06
3.06415e-06
1.94129e-06
2.53735e-06
4.21197e-06
3.40175e-05
3.46301e-05
3.53081e-05
3.60147e-05
3.67513e-05
3.75205e-05
3.82965e-05
3.90692e-05
3.98335e-05
4.05784e-05
4.12978e-05
4.19874e-05
4.26438e-05
4.32622e-05
4.38385e-05
4.43665e-05
4.48389e-05
4.52467e-05
4.55813e-05
4.58302e-05
4.59899e-05
4.60431e-05
4.59671e-05
4.57643e-05
4.54272e-05
4.49302e-05
4.42553e-05
4.34019e-05
4.23771e-05
4.11944e-05
3.98732e-05
3.84371e-05
3.69055e-05
3.52995e-05
3.36131e-05
3.1845e-05
2.99298e-05
2.76148e-05
2.51009e-05
3.34311e-05
3.2864e-05
3.22846e-05
3.16749e-05
3.10589e-05
3.0441e-05
2.98389e-05
2.92748e-05
2.87497e-05
2.82593e-05
2.78033e-05
2.73745e-05
2.69642e-05
2.65632e-05
2.61616e-05
2.5748e-05
2.53113e-05
2.48392e-05
2.43174e-05
2.37312e-05
2.30636e-05
2.22941e-05
2.14031e-05
2.03853e-05
1.92517e-05
1.80206e-05
1.67039e-05
1.53088e-05
1.38428e-05
1.23165e-05
1.07406e-05
9.12587e-06
7.48423e-06
5.82186e-06
4.14107e-06
2.48604e-06
1.24073e-06
2.00474e-06
3.66984e-06
3.0409e-05
3.09605e-05
3.15709e-05
3.22088e-05
3.28745e-05
3.35708e-05
3.42748e-05
3.49773e-05
3.56738e-05
3.63548e-05
3.70147e-05
3.76502e-05
3.82584e-05
3.88355e-05
3.93784e-05
3.98826e-05
4.03417e-05
4.07487e-05
4.10954e-05
4.13708e-05
4.15711e-05
4.16836e-05
4.1687e-05
4.15798e-05
4.13573e-05
4.09969e-05
4.04826e-05