/*--------------------------------*- C++ -*----------------------------------*\
| =========                 |                                                 |
| \\      /  F ield         | OpenFOAM: The Open Source CFD Toolbox           |
|  \\    /   O peration     | Version:  2312                                  |
|   \\  /    A nd           | Website:  www.openfoam.com                      |
|    \\/     M anipulation  |                                                 |
\*---------------------------------------------------------------------------*/
FoamFile
{
    version     2.0;
    format      ascii;
    arch        "LSB;label=32;scalar=64";
    class       volVectorField;
    location    "150";
    object      momentError;
}
// * * * * * * * * * * * * * * * * * * * * * * * * * * * * * * * * * * * * * //

dimensions      [0 1 -2 0 0 0 0];

internalField   nonuniform List<vector> 
10720
(
(1.325 -5.20138 -2.82851e-15)
(0.921017 -5.123 -2.08926e-15)
(0.0615883 -4.31969 -2.0563e-14)
(-0.306224 -4.11748 9.14726e-14)
(-0.567423 -3.71431 6.88104e-14)
(-0.750175 -3.29725 -1.69674e-13)
(-0.899072 -2.89715 -1.31422e-13)
(-0.95648 -2.44757 -1.01986e-13)
(-0.949975 -2.04489 2.02051e-14)
(-0.899805 -1.65375 5.24914e-15)
(-0.821443 -1.3889 -1.56333e-14)
(-0.55754 -0.884179 6.54275e-14)
(-0.36117 -0.565735 -2.12876e-13)
(-0.194955 -0.29631 -3.90308e-13)
(-0.0013421 -0.0513678 7.2334e-14)
(0.195367 0.161318 -1.03557e-13)
(0.411394 0.334393 1.12784e-13)
(0.648754 0.469457 8.71931e-13)
(0.915694 0.571581 2.32488e-13)
(1.20001 0.625652 -4.65919e-13)
(1.43414 0.629275 -2.26184e-13)
(1.51883 0.531187 8.89982e-14)
(1.20865 0.354484 3.51555e-13)
(0.624346 0.230403 -2.57167e-13)
(0.361413 0.146875 4.82594e-14)
(0.228418 0.0371046 -3.97405e-14)
(0.202394 -0.0214745 -6.90314e-14)
(0.185267 -0.0403304 1.23231e-14)
(0.185285 -0.0371416 1.03171e-14)
(0.207411 -0.0304223 2.09723e-13)
(0.216987 -0.0249871 1.57849e-13)
(0.175826 -0.0176819 -1.77255e-13)
(0.144498 -0.0139674 -1.31634e-13)
(0.121375 -0.0131246 -2.4123e-13)
(0.103905 -0.0132132 -1.63472e-13)
(0.0881109 -0.0128736 1.56067e-13)
(0.0829923 -0.0132215 -1.09759e-14)
(0.0607905 -0.00184166 4.96473e-16)
(0.176284 -0.0311078 -6.6206e-14)
(1.4976 -4.84705 9.56116e-15)
(1.60784 -3.8875 -2.17488e-14)
(1.57127 -2.8904 2.45675e-14)
(1.30909 -2.08095 1.09352e-13)
(1.09476 -1.45881 4.06375e-14)
(0.809963 -0.793081 -2.94472e-13)
(0.274381 -0.14623 -1.36914e-13)
(0.0171238 0.0545039 1.51035e-13)
(0.164721 -0.152095 -6.81304e-14)
(0.389689 -0.333937 5.99666e-14)
(0.43123 -0.282645 -7.80443e-14)
(0.371159 -0.205975 -1.35448e-13)
(0.34413 -0.176097 3.50602e-14)
(0.328849 -0.150503 6.92094e-14)
(0.295968 -0.121116 -1.14221e-13)
(0.259728 -0.0992463 -9.87777e-14)
(0.231859 -0.0836713 -7.02602e-14)
(0.208541 -0.0711017 -8.55891e-14)
(0.187255 -0.0601275 -3.1458e-14)
(0.16768 -0.0509744 -2.6159e-15)
(0.150637 -0.0431303 2.95728e-14)
(0.135722 -0.0366146 5.95516e-14)
(0.122957 -0.0306894 -2.80262e-14)
(0.111346 -0.0258748 -2.0045e-14)
(0.0997814 -0.0203958 2.36267e-14)
(0.0877921 -0.0190001 -3.86387e-15)
(0.0790093 -0.0154619 -6.7914e-16)
(0.0737145 -0.00277631 -1.50002e-15)
(0.0682749 0.00536998 3.05716e-16)
(0.0636459 0.00541965 2.89819e-16)
(0.0567178 0.00446671 9.74715e-16)
(0.0514583 0.00444957 -1.61766e-15)
(0.0469442 0.00470047 -2.60032e-15)
(0.0429226 0.00485309 -8.56654e-15)
(0.0391682 0.00487181 -9.49646e-15)
(0.0357644 0.0047873 4.88176e-16)
(0.0324303 0.00471235 1.17557e-14)
(0.0301029 0.00403328 -2.95616e-15)
(0.0221578 0.00807636 -5.67618e-14)
(-0.375621 -3.70082 -4.29319e-15)
(-0.779133 -3.6867 2.82488e-15)
(-1.07108 -3.12109 -8.85223e-16)
(-1.46677 -3.01835 -6.91029e-15)
(-1.71493 -2.79536 9.05726e-15)
(-1.87507 -2.53846 6.19078e-14)
(-2.04162 -2.2611 7.50565e-14)
(-2.11747 -1.96827 2.57576e-14)
(-2.11346 -1.68317 -8.21188e-14)
(-2.08976 -1.42957 -3.87708e-14)
(-1.98229 -1.14473 -2.47346e-13)
(-1.96767 -1.23882 -4.53992e-13)
(-1.92795 -1.20785 -2.25503e-14)
(-1.89777 -1.08898 -1.97906e-14)
(-1.74676 -1.03782 -8.15199e-14)
(-1.61844 -0.981309 8.44348e-14)
(-1.47299 -0.947598 3.79596e-13)
(-1.29231 -0.914163 -6.78195e-13)
(-1.04569 -0.880659 -5.56637e-13)
(-0.695185 -0.831575 -3.54883e-13)
(-0.198641 -0.729139 2.2199e-13)
(0.454017 -0.534818 2.71461e-13)
(1.1409 -0.211457 -3.6949e-13)
(1.52018 0.0636859 5.94057e-14)
(1.3091 0.109665 -2.13107e-15)
(1.11137 0.0688287 -9.77559e-15)
(1.00586 0.0352155 -4.06101e-15)
(0.84875 0.00300719 1.2159e-14)
(0.59903 -0.0126458 -2.7747e-14)
(0.386988 -0.021027 -1.3834e-14)
(0.236541 -0.0271414 7.30446e-15)
(0.187631 -0.0309424 -5.23357e-15)
(0.179116 -0.0314142 -1.13381e-13)
(0.172626 -0.0292959 -7.02229e-14)
(0.160894 -0.0268794 1.58882e-13)
(0.148821 -0.0261743 3.01112e-14)
(0.153385 -0.0287393 6.72308e-14)
(0.139458 -0.0277071 -1.13381e-14)
(0.0634895 -0.0210041 -3.68645e-14)
(-0.107296 -3.47535 -1.71658e-14)
(0.22203 -2.90042 1.57688e-13)
(0.474159 -2.24878 -4.9413e-14)
(0.568591 -1.73548 -1.20145e-13)
(0.604131 -1.25731 8.09662e-14)
(0.559434 -0.764965 7.42541e-14)
(0.341928 -0.325566 -1.80906e-14)
(0.226614 -0.192797 1.58721e-13)
(0.312339 -0.278903 3.42877e-14)
(0.426848 -0.312622 -5.37899e-14)
(0.471706 -0.232679 7.07568e-14)
(0.44773 -0.171369 -9.55436e-14)
(0.421144 -0.138987 2.15447e-14)
(0.397477 -0.103913 1.00703e-14)
(0.363213 -0.0723489 2.3562e-14)
(0.324584 -0.053905 2.64678e-14)
(0.291803 -0.0421126 4.59573e-14)
(0.263857 -0.0330889 -1.3539e-14)
(0.23878 -0.025483 2.94919e-15)
(0.215879 -0.0197981 -6.74226e-15)
(0.19568 -0.0151004 1.75633e-14)
(0.17782 -0.0113587 5.07347e-14)
(0.162055 -0.00780692 -1.01686e-15)
(0.147302 -0.00387199 -1.62935e-14)
(0.132833 0.000960856 -1.39787e-14)
(0.118602 0.00537865 1.91141e-14)
(0.104959 0.00758421 5.28506e-15)
(0.0937248 0.00785782 -1.39655e-15)
(0.0847748 0.00597323 4.73372e-17)
(0.0760895 0.00434293 -8.41459e-17)
(0.0709889 0.00384323 -1.8584e-16)
(0.0653664 0.00485298 -1.06695e-15)
(0.059725 0.00576566 2.98867e-15)
(0.0544241 0.00619019 5.20297e-15)
(0.0497288 0.00633349 3.296e-15)
(0.0458378 0.00633101 -8.03765e-15)
(0.0418731 0.00620773 1.15206e-15)
(0.0421456 0.00654588 1.1542e-14)
(0.0267825 0.00749116 1.51583e-14)
(0.251159 -2.999 2.01886e-15)
(0.0355668 -2.97382 4.51915e-16)
(-0.227934 -2.54282 -1.39702e-15)
(-0.465572 -2.55586 -1.45548e-15)
(-0.621439 -2.44502 5.2319e-14)
(-0.756644 -2.26633 -5.983e-14)
(-0.888421 -2.09616 -8.05346e-14)
(-0.968769 -1.90189 1.49161e-13)
(-1.00587 -1.68643 6.20274e-14)
(-1.01794 -1.48002 8.55879e-14)
(-0.995316 -1.28195 1.9284e-14)
(-0.948646 -1.07186 2.7459e-16)
(-0.896073 -0.861612 3.43186e-13)
(-0.822642 -0.697278 1.12587e-14)
(-0.822105 -0.528455 2.11906e-13)
(-0.851181 -0.390592 -4.12098e-16)
(-0.87871 -0.312798 -6.68793e-13)
(-0.935633 -0.259486 4.04662e-13)
(-1.04496 -0.247659 9.05573e-13)
(-1.22306 -0.285314 1.64404e-13)
(-1.44707 -0.382314 -3.33745e-14)
(-1.65748 -0.450573 -5.53513e-14)
(-1.63161 -0.392316 1.55934e-13)
(-1.2191 -0.165561 1.18774e-13)
(-0.664556 0.0424329 -9.67186e-14)
(-0.27216 0.11746 -2.12566e-14)
(-0.0366266 0.0860214 -5.53864e-14)
(0.131629 0.0317326 3.06392e-14)
(0.262392 0.0116887 -2.70178e-14)
(0.392772 0.00729029 -1.57892e-13)
(0.398157 -0.00254316 -8.96726e-15)
(0.335637 -0.0131375 2.38531e-13)
(0.250569 -0.0198834 3.72863e-14)
(0.178687 -0.0235527 1.07851e-13)
(0.145407 -0.0256455 1.41847e-13)
(0.138739 -0.0274114 2.13813e-14)
(0.152647 -0.0310409 -8.89114e-14)
(0.151488 -0.0319873 8.1029e-15)
(0.193373 -0.0406876 1.79064e-14)
(0.413907 -2.83801 2.56346e-14)
(0.521071 -2.39866 -3.94035e-14)
(0.587119 -1.86551 -4.99404e-14)
(0.608448 -1.48487 -1.17694e-14)
(0.576552 -1.11686 1.06729e-14)
(0.496381 -0.744317 -1.17261e-13)
(0.357905 -0.397439 2.87241e-14)
(0.310219 -0.313092 -1.52087e-13)
(0.403817 -0.364469 -1.27169e-13)
(0.466693 -0.348421 -1.14251e-13)
(0.487847 -0.294473 1.16387e-13)
(0.467183 -0.24743 1.06411e-13)
(0.434891 -0.208933 -6.42855e-14)
(0.402338 -0.170406 -1.46642e-13)
(0.365947 -0.137373 4.04363e-14)
(0.32697 -0.113522 6.89103e-14)
(0.291984 -0.0953119 -1.8716e-14)
(0.262196 -0.0799752 -9.01233e-14)
(0.236087 -0.0669175 -2.60136e-14)
(0.212676 -0.0562194 2.63574e-15)
(0.192138 -0.047208 -1.97173e-14)
(0.174057 -0.0394644 -3.97604e-14)
(0.157918 -0.0322494 8.73597e-15)
(0.142659 -0.0251669 -6.53153e-16)
(0.127843 -0.0180149 2.37741e-15)
(0.113448 -0.0123148 -8.45387e-15)
(0.100117 -0.00898934 -1.55998e-14)
(0.0888522 -0.00619867 3.41648e-15)
(0.0793372 -0.00292745 6.21236e-16)
(0.0709363 0.000129929 -4.05499e-16)
(0.0642428 0.00343459 9.65189e-17)
(0.058641 0.00485386 1.29076e-15)
(0.0536161 0.00560258 -1.40325e-15)
(0.0490355 0.00595899 -2.45842e-15)
(0.0448686 0.00608681 6.6955e-16)
(0.0413542 0.00613223 -1.028e-15)
(0.0381733 0.00608434 8.32963e-15)
(0.0379517 0.0061673 8.39987e-15)
(0.0321054 0.00777132 -8.14029e-14)
(-0.0930045 -2.38355 1.10506e-14)
(-0.297196 -2.35837 3.51428e-15)
(-0.47369 -2.04036 5.73532e-16)
(-0.698069 -2.05533 -6.19323e-15)
(-0.846097 -1.95132 3.16301e-16)
(-0.977746 -1.8034 -1.34271e-14)
(-1.10988 -1.66367 9.73376e-14)
(-1.19146 -1.49613 2.76773e-14)
(-1.23641 -1.31281 -2.38981e-13)
(-1.25788 -1.13508 8.05272e-14)
(-1.24241 -0.95826 2.60611e-13)
(-1.2016 -0.79139 3.28748e-13)
(-1.13339 -0.658189 7.60239e-14)
(-1.05293 -0.558291 -3.73943e-13)
(-0.983716 -0.468691 -9.47047e-14)
(-0.875346 -0.423647 -9.4903e-14)
(-0.765716 -0.40166 -1.74878e-13)
(-0.669845 -0.378133 -3.57589e-13)
(-0.595313 -0.365483 -6.21324e-13)
(-0.553014 -0.372314 1.56688e-13)
(-0.585378 -0.387561 -1.23421e-13)
(-0.743386 -0.404268 -1.77636e-13)
(-0.990571 -0.352006 1.93348e-15)
(-1.14059 -0.21535 -2.46604e-13)
(-1.05559 -0.0657305 -4.5639e-14)
(-0.85733 0.0116445 4.32141e-14)
(-0.693895 0.00376349 5.16299e-14)
(-0.621431 -0.00295457 -2.36746e-14)
(-0.44354 -0.000740101 3.31569e-14)
(-0.449558 0.0284484 6.55874e-14)
(-0.204871 0.0220816 -5.88152e-14)
(-0.00690457 0.0142168 9.12446e-15)
(0.140047 0.000487818 1.80788e-13)
(0.196431 -0.0118618 8.90402e-14)
(0.180145 -0.0199867 -3.5588e-14)
(0.152315 -0.0264883 -1.09692e-13)
(0.1524 -0.0328562 -2.65692e-14)
(0.154834 -0.0354909 -2.17311e-14)
(0.215048 -0.0447911 5.89107e-14)
(0.0846975 -2.25998 -2.31489e-15)
(0.2374 -1.9599 -3.9915e-14)
(0.357583 -1.56798 -3.55921e-14)
(0.431503 -1.28903 -3.0972e-14)
(0.456716 -0.997788 1.20882e-13)
(0.426402 -0.699379 2.03883e-13)
(0.366872 -0.471206 1.36787e-14)
(0.365546 -0.412188 1.45911e-13)
(0.442442 -0.420938 -2.67448e-15)
(0.481936 -0.380735 -3.44309e-14)
(0.493899 -0.320304 -8.72102e-14)
(0.48022 -0.262013 -3.07731e-14)
(0.45179 -0.211184 -1.77507e-14)
(0.419069 -0.16673 7.41549e-14)
(0.383731 -0.129255 -3.91738e-14)
(0.346026 -0.0999217 -1.29421e-13)
(0.310778 -0.0777709 -1.68616e-14)
(0.279632 -0.0605596 8.3989e-14)
(0.25211 -0.0470116 -2.61717e-15)
(0.227293 -0.0364852 -2.37444e-14)
(0.205313 -0.0281864 -6.33991e-14)
(0.185678 -0.0214517 2.57965e-14)
(0.167807 -0.0155978 3.37791e-14)
(0.150792 -0.0101218 -5.91235e-15)
(0.134528 -0.00466523 -2.57374e-15)
(0.119217 -0.000203361 5.32199e-15)
(0.105103 0.00256367 7.61042e-15)
(0.0928075 0.00465494 -1.72907e-15)
(0.0820857 0.00620187 -5.58207e-16)
(0.072612 0.00697479 2.50529e-16)
(0.0645493 0.00667279 -3.44097e-16)
(0.0583677 0.00626266 -6.32851e-16)
(0.0529942 0.00609153 -1.37253e-16)
(0.0479639 0.00548614 3.20866e-16)
(0.0446069 0.00853739 -7.01483e-16)
(0.0412379 0.00925973 1.28883e-14)
(0.0366492 0.00433776 -2.09614e-14)
(0.0361141 0.00570827 -5.10672e-14)
(0.0329684 0.00838446 -3.03661e-14)
(0.000659461 -1.98969 -9.43522e-15)
(-0.143449 -1.96932 5.6836e-15)
(-0.275274 -1.72656 2.42718e-15)
(-0.44414 -1.76548 -1.42229e-14)
(-0.554709 -1.69991 -9.9899e-15)
(-0.6566 -1.59609 3.02989e-14)
(-0.763904 -1.51012 -1.30526e-14)
(-0.830499 -1.39403 1.46498e-14)
(-0.873572 -1.26077 -8.95936e-14)
(-0.898129 -1.12937 -2.74403e-13)
(-0.892883 -0.9944 -9.9419e-15)
(-0.867566 -0.86473 -1.21876e-13)
(-0.825082 -0.747398 -7.79777e-14)
(-0.773027 -0.641527 -1.47332e-14)
(-0.721277 -0.540577 -3.20454e-13)
(-0.654299 -0.455067 2.93064e-13)
(-0.641822 -0.339443 1.6801e-13)
(-0.614229 -0.27292 -3.7584e-13)
(-0.584392 -0.229537 1.20789e-13)
(-0.556623 -0.202332 -1.97556e-13)
(-0.5369 -0.187611 -1.36642e-13)
(-0.53991 -0.17245 2.47935e-13)
(-0.580385 -0.132854 7.04903e-15)
(-0.63094 -0.0565324 2.17542e-13)
(-0.617309 0.0187529 9.8957e-14)
(-0.537947 0.0478135 -2.01862e-14)
(-0.485939 0.0401035 6.10227e-15)
(-0.439747 0.0201157 2.42582e-14)
(-0.507216 0.0285104 -2.95582e-14)
(-0.432823 0.0280454 -5.31307e-14)
(-0.442111 0.0392311 2.23782e-14)
(-0.425265 0.0376977 -5.30569e-14)
(-0.29848 0.0291497 -3.9859e-14)
(-0.150648 0.0222622 -1.48783e-13)
(0.0384313 -0.000961512 -2.49479e-13)
(0.131196 -0.0176989 4.35905e-14)
(0.157787 -0.0308304 -1.40435e-14)
(0.157695 -0.03875 -1.02078e-14)
(0.213288 -0.0450044 -2.04574e-14)
(0.127236 -1.886 2.06688e-14)
(0.227969 -1.65387 3.89721e-14)
(0.310507 -1.33911 -4.94196e-14)
(0.3685 -1.12152 -2.16892e-14)
(0.392331 -0.890223 6.91273e-14)
(0.377509 -0.652283 -1.50712e-13)
(0.359998 -0.503912 -1.00845e-13)
(0.387068 -0.463631 1.9486e-13)
(0.449811 -0.445041 1.92996e-13)
(0.481333 -0.396374 -5.59284e-15)
(0.489059 -0.338483 -5.48197e-14)
(0.477505 -0.282504 -3.59907e-14)
(0.451441 -0.232448 1.17089e-13)
(0.419442 -0.189104 -5.59407e-14)
(0.385119 -0.152408 -1.25643e-14)
(0.348498 -0.122433 9.59552e-14)
(0.3137 -0.0992553 -4.34105e-14)
(0.282048 -0.0810803 3.94936e-14)
(0.253934 -0.066428 2.39048e-14)
(0.228529 -0.0544685 4.07413e-15)
(0.20596 -0.0446247 6.6099e-14)
(0.185744 -0.0363125 -2.46198e-14)
(0.167253 -0.0289432 -4.55569e-14)
(0.149618 -0.0220495 -7.38742e-15)
(0.132968 -0.0155478 1.79824e-14)
(0.117572 -0.0101754 5.18759e-16)
(0.103457 -0.00647334 8.35532e-15)
(0.091099 -0.00378375 -1.56755e-15)
(0.0803325 -0.00165228 5.53502e-17)
(0.0708119 -4.28066e-05 -1.36778e-16)
(0.0623381 0.0011156 -2.49639e-16)
(0.0558189 0.00292504 2.65212e-16)
(0.0503652 0.00420718 -4.15103e-16)
(0.045632 0.00592249 -1.27634e-15)
(0.0409784 0.0019005 -1.89347e-15)
(0.0373011 0.00112594 4.68211e-15)
(0.0345332 0.00777596 9.40599e-16)
(0.0340692 0.0057803 -1.11426e-14)
(0.0324727 0.00795578 4.24686e-14)
(-0.0527138 -1.66265 2.07496e-15)
(-0.179922 -1.6435 -4.36626e-16)
(-0.287044 -1.4557 2.38414e-15)
(-0.437296 -1.49267 -2.81344e-15)
(-0.536334 -1.43707 9.09896e-15)
(-0.629072 -1.3516 -2.84755e-15)
(-0.730193 -1.28123 -3.79448e-14)
(-0.795143 -1.18142 7.34179e-14)
(-0.841177 -1.06705 1.59984e-13)
(-0.872275 -0.952463 -1.00416e-13)
(-0.87565 -0.832524 -1.02778e-13)
(-0.861477 -0.714725 6.28813e-14)
(-0.832292 -0.605526 -1.43551e-13)
(-0.78976 -0.50656 -2.57119e-14)
(-0.73958 -0.419141 -4.47188e-14)
(-0.688448 -0.337091 1.98662e-14)
(-0.621344 -0.30169 3.96663e-14)
(-0.580536 -0.279454 4.37447e-13)
(-0.542093 -0.270105 3.4779e-13)
(-0.512518 -0.264642 -1.54289e-13)
(-0.498416 -0.259785 2.20764e-13)
(-0.49955 -0.241145 1.87344e-14)
(-0.505011 -0.185333 -5.71914e-14)
(-0.4893 -0.0917912 -1.17369e-13)
(-0.432882 -0.00623292 9.19887e-15)
(-0.353858 0.0309748 3.1539e-14)
(-0.293304 0.026992 3.91484e-14)
(-0.273466 0.0155792 -3.70807e-14)
(-0.261651 0.0144108 9.55488e-15)
(-0.240117 0.0174274 7.45571e-14)
(-0.263383 0.0247271 -2.90244e-14)
(-0.261486 0.0252094 -1.64295e-13)
(-0.312263 0.0250179 -8.84307e-14)
(-0.32216 0.0292466 -5.88655e-14)
(-0.234986 0.0232437 6.36983e-14)
(-0.11653 0.0137114 6.06595e-14)
(0.0562785 -0.0144744 6.05655e-14)
(0.139146 -0.0353916 7.13792e-14)
(0.205091 -0.0432829 -1.71412e-15)
(0.0618065 -1.57966 -9.26651e-15)
(0.157546 -1.40229 -1.15259e-14)
(0.239371 -1.15311 2.39254e-15)
(0.299166 -0.981428 3.52803e-14)
(0.328925 -0.794023 2.96073e-14)
(0.329613 -0.59955 -1.96067e-13)
(0.339589 -0.504444 -1.18277e-13)
(0.387798 -0.483437 -1.77149e-13)
(0.438834 -0.453111 2.72678e-14)
(0.466162 -0.402376 2.0932e-14)
(0.473607 -0.346543 -5.36776e-14)
(0.465123 -0.292108 4.86869e-15)
(0.443322 -0.241456 -2.44177e-14)
(0.414977 -0.196786 -4.49442e-14)
(0.383682 -0.158632 -1.40827e-13)
(0.349822 -0.126574 -1.21487e-14)
(0.316843 -0.10088 8.47493e-14)
(0.286073 -0.08035 -1.31274e-14)
(0.25821 -0.0637542 1.65226e-14)
(0.232815 -0.050265 -2.97939e-14)
(0.209978 -0.0393409 -4.54242e-14)
(0.189274 -0.0303759 -3.88658e-15)
(0.170113 -0.0227857 1.67925e-14)
(0.151755 -0.0160467 1.81333e-14)
(0.134482 -0.00991882 -6.95811e-16)
(0.11874 -0.0048393 -9.1304e-15)
(0.104376 -0.00127483 -1.53755e-14)
(0.091734 0.00128585 2.97301e-15)
(0.0807113 0.00330899 -1.27297e-16)
(0.0709875 0.00477564 1.58525e-16)
(0.0624138 0.00590148 2.3758e-16)
(0.0556026 0.00634647 -2.50072e-16)
(0.0502832 0.00659602 6.0293e-16)
(0.0456186 0.00623102 6.40934e-16)
(0.0407872 0.00750669 7.93201e-16)
(0.0369532 0.00716974 -1.31505e-14)
(0.0346076 0.00505602 2.15303e-14)
(0.0333647 0.00576173 5.39084e-14)
(0.0326226 0.00745495 -2.07493e-14)
(-0.0447318 -1.41492 8.9159e-16)
(-0.14717 -1.39895 -2.87373e-16)
(-0.233821 -1.25273 -4.28892e-17)
(-0.358125 -1.29238 3.30974e-15)
(-0.440032 -1.25069 -6.21764e-15)
(-0.517943 -1.18477 -1.67369e-14)
(-0.60389 -1.13564 4.20635e-14)
(-0.659863 -1.06017 -9.71623e-15)
(-0.700681 -0.971731 4.93723e-14)
(-0.729971 -0.882986 9.81951e-14)
(-0.735689 -0.78759 2.03643e-14)
(-0.726871 -0.692509 3.23771e-14)
(-0.705448 -0.603042 2.07892e-13)
(-0.67087 -0.520162 3.5566e-13)
(-0.630448 -0.444377 3.22393e-13)
(-0.583753 -0.380515 -5.54199e-15)
(-0.538412 -0.319333 3.94198e-13)
(-0.5152 -0.270663 2.38784e-14)
(-0.497726 -0.237527 -1.16624e-13)
(-0.484941 -0.214017 1.54875e-13)
(-0.482726 -0.198057 -2.57018e-13)
(-0.491314 -0.179805 1.07828e-13)
(-0.501132 -0.140801 1.10406e-13)
(-0.484296 -0.0732861 4.3496e-14)
(-0.422666 -0.0053416 1.18272e-13)
(-0.338043 0.0283046 -4.84792e-14)
(-0.267543 0.0267432 -4.1855e-14)
(-0.227258 0.0157563 6.16615e-15)
(-0.206776 0.0148394 2.59838e-14)
(-0.188966 0.0196028 -6.90484e-14)
(-0.167833 0.0208977 -6.75944e-14)
(-0.156364 0.0192054 1.37748e-13)
(-0.183106 0.0236188 3.10954e-14)
(-0.195029 0.0205523 -5.89006e-14)
(-0.265195 0.0280757 4.05727e-16)
(-0.271394 0.0261579 -1.44157e-13)
(-0.174673 0.0165242 -5.45551e-14)
(0.00151992 -0.0153831 -2.16053e-14)
(0.16306 -0.0348597 -3.35771e-14)
(0.0490824 -1.34511 -6.68457e-15)
(0.128462 -1.20389 -1.21427e-14)
(0.198058 -1.00195 6.40246e-15)
(0.252337 -0.862022 8.21752e-14)
(0.282937 -0.706502 3.54016e-14)
(0.292183 -0.555731 3.68709e-15)
(0.315947 -0.492627 1.78796e-13)
(0.374783 -0.481389 -8.66468e-14)
(0.418096 -0.446912 -1.38214e-13)
(0.442854 -0.397965 4.77069e-14)
(0.451857 -0.346112 9.74235e-14)
(0.446411 -0.295198 -2.33527e-14)
(0.428676 -0.247038 6.70242e-14)
(0.404422 -0.204116 8.37486e-15)
(0.376503 -0.167098 3.47199e-14)
(0.34548 -0.135357 1.30896e-14)
(0.314707 -0.109325 -3.80943e-14)
(0.28525 -0.0882219 3.17555e-14)
(0.257983 -0.071082 -2.39996e-14)
(0.232838 -0.0570634 4.06603e-15)
(0.210028 -0.0456298 6.29541e-14)
(0.189093 -0.0361538 -2.18141e-14)
(0.169579 -0.0280538 -2.92543e-14)
(0.150856 -0.0208515 6.3053e-15)
(0.133366 -0.0144227 -1.48137e-15)
(0.117576 -0.00910104 2.69113e-15)
(0.103233 -0.00520434 7.82024e-15)
(0.0905637 -0.00236883 -1.33668e-15)
(0.0795116 -0.0001893 -9.41359e-17)
(0.0698054 0.00142236 1.67067e-16)
(0.0612611 0.00242927 8.62588e-16)
(0.0542794 0.00336343 1.84045e-16)
(0.0491379 0.00404819 -2.4906e-16)
(0.0445731 0.00447463 -2.36881e-16)
(0.0404304 0.00474533 -4.4294e-16)
(0.0369532 0.00501599 4.06349e-15)
(0.0338921 0.00521139 -8.32105e-15)
(0.0327789 0.00527416 -1.26654e-14)
(0.0321824 0.00760504 -5.22366e-14)
(-0.0530967 -1.21213 2.91141e-15)
(-0.141042 -1.1974 -3.22594e-15)
(-0.214481 -1.08155 6.39429e-16)
(-0.322785 -1.11868 -1.08241e-16)
(-0.394763 -1.08433 -3.26305e-16)
(-0.463688 -1.03019 2.9527e-15)
(-0.541128 -0.992282 7.96542e-15)
(-0.592333 -0.929258 -1.03069e-13)
(-0.631458 -0.855007 -1.26219e-14)
(-0.661927 -0.780675 1.6081e-13)
(-0.671281 -0.698305 -6.75997e-14)
(-0.668297 -0.614907 -1.46543e-13)
(-0.65413 -0.534901 -2.87875e-13)
(-0.627759 -0.458655 -2.39228e-13)
(-0.594583 -0.388492 -1.64502e-13)
(-0.555805 -0.325776 -6.07e-14)
(-0.51493 -0.269215 -2.2111e-13)
(-0.481722 -0.235494 -3.06712e-13)
(-0.464508 -0.215751 -1.38933e-13)
(-0.451208 -0.20378 3.51875e-13)
(-0.447303 -0.192498 3.23969e-13)
(-0.453061 -0.174471 -2.25408e-14)
(-0.462747 -0.137789 -4.92739e-14)
(-0.455021 -0.0785977 -1.57018e-13)
(-0.409894 -0.0180027 -9.10246e-14)
(-0.340315 0.0158759 4.19373e-14)
(-0.27777 0.0196958 3.23675e-14)
(-0.238103 0.0133006 3.64853e-15)
(-0.213031 0.0134107 -1.95018e-14)
(-0.188552 0.0174741 7.25477e-14)
(-0.16355 0.0187451 1.51964e-13)
(-0.141139 0.0174646 -1.00641e-14)
(-0.123755 0.0148781 2.67691e-14)
(-0.121822 0.0141499 4.65471e-14)
(-0.146279 0.0190656 -1.94621e-14)
(-0.180363 0.0144263 1.74541e-13)
(-0.252739 0.0234774 8.09513e-14)
(-0.19186 0.0089954 -6.66065e-14)
(0.0413667 -0.0132451 -2.19878e-14)
(0.0293668 -1.15318 1.69038e-14)
(0.0994581 -1.0396 2.07586e-14)
(0.162188 -0.874471 7.36294e-15)
(0.213028 -0.759496 1.01683e-13)
(0.24405 -0.630196 -1.75762e-13)
(0.263605 -0.526089 8.78329e-14)
(0.299255 -0.483227 1.51408e-13)
(0.35369 -0.466443 7.00903e-14)
(0.392774 -0.432301 -3.5534e-14)
(0.415305 -0.386729 -3.41599e-14)
(0.425668 -0.33942 2.22515e-14)
(0.423412 -0.292802 3.66427e-14)
(0.409679 -0.247878 -8.80626e-14)
(0.389722 -0.207174 6.45284e-14)
(0.365615 -0.171346 1.60889e-14)
(0.337975 -0.139908 -1.13923e-14)
(0.309977 -0.11346 -5.68092e-14)
(0.282455 -0.0915298 -5.68369e-14)
(0.256407 -0.0734259 4.78082e-14)
(0.231991 -0.0584464 1.39986e-14)
(0.20957 -0.0461101 4.87166e-15)
(0.188741 -0.0358569 4.98234e-14)
(0.169123 -0.0271703 2.00354e-14)
(0.150207 -0.0196218 -2.3604e-15)
(0.132632 -0.0130734 6.36802e-15)
(0.116832 -0.0077067 -4.41103e-15)
(0.102507 -0.00370688 -8.66342e-15)
(0.0898128 -0.000794822 1.28739e-15)
(0.0787086 0.00140671 -1.07652e-15)
(0.0689727 0.00300803 -2.90009e-16)
(0.0604158 0.00412949 -5.67473e-16)
(0.0531844 0.0048333 6.56975e-16)
(0.0481848 0.00546429 1.2643e-15)
(0.0438031 0.00570355 1.21615e-15)
(0.039808 0.00581994 7.24182e-16)
(0.0363983 0.0057502 -4.78657e-15)
(0.033506 0.00573508 2.78786e-15)
(0.0324513 0.00575181 3.38597e-14)
(0.0319647 0.0076735 4.01802e-14)
(-0.0527135 -1.0462 7.66228e-16)
(-0.127588 -1.03398 1.84178e-15)
(-0.189932 -0.941746 -2.27367e-15)
(-0.283118 -0.976197 2.03751e-15)
(-0.345431 -0.949128 -9.16751e-15)
(-0.40492 -0.904778 1.15834e-14)
(-0.472918 -0.876499 -1.29566e-14)
(-0.51852 -0.826259 -2.14789e-14)
(-0.553777 -0.765967 -3.16432e-14)
(-0.582583 -0.705987 -4.38081e-14)
(-0.592998 -0.638059 1.78416e-14)
(-0.59278 -0.568389 1.71315e-13)
(-0.582988 -0.50078 2.31999e-13)
(-0.561965 -0.435166 3.74562e-14)
(-0.534388 -0.374187 5.80764e-15)
(-0.501707 -0.319136 1.18649e-14)
(-0.465411 -0.271853 -4.0227e-14)
(-0.433341 -0.230018 1.26359e-13)
(-0.423511 -0.205357 1.15552e-13)
(-0.416552 -0.187503 -2.67993e-13)
(-0.415891 -0.170678 -2.7675e-14)
(-0.420696 -0.150478 5.67683e-14)
(-0.426535 -0.118338 -7.2147e-14)
(-0.41912 -0.0704551 7.75729e-14)
(-0.383113 -0.0205474 1.04041e-15)
(-0.326487 0.00993661 -1.42231e-14)
(-0.273453 0.0161355 -4.16862e-14)
(-0.238111 0.0123305 1.71518e-15)
(-0.21544 0.0126626 -5.12007e-17)
(-0.194083 0.0162469 3.45837e-14)
(-0.171879 0.0174647 1.67554e-14)
(-0.150847 0.0164341 -7.34037e-14)
(-0.131191 0.0148538 -3.38445e-14)
(-0.113062 0.0126107 1.70079e-13)
(-0.0992923 0.00957856 2.67874e-14)
(-0.102354 0.00783731 -1.27536e-13)
(-0.159208 0.010469 -4.23154e-14)
(-0.260349 0.0137777 5.07098e-14)
(-0.105913 0.0131397 -3.60591e-16)
(0.0182674 -0.996178 3.59693e-15)
(0.0795782 -0.903387 -4.95689e-14)
(0.1352 -0.766922 2.28831e-14)
(0.180943 -0.671165 2.26673e-14)
(0.210596 -0.562634 4.7058e-14)
(0.237805 -0.491061 -1.5956e-14)
(0.278984 -0.463505 -3.46373e-14)
(0.328698 -0.444569 -4.28922e-15)
(0.364649 -0.412009 -4.28527e-15)
(0.385978 -0.370528 1.27919e-14)
(0.397427 -0.328059 3.86887e-14)
(0.397943 -0.286103 6.49211e-14)
(0.387968 -0.245092 -3.78178e-15)
(0.372128 -0.207405 -1.34043e-13)
(0.351743 -0.173567 2.5759e-14)
(0.327577 -0.143321 7.54414e-14)
(0.30253 -0.117375 5.77815e-14)
(0.277125 -0.0953972 2.63324e-14)
(0.252608 -0.0770085 -2.14043e-14)
(0.229212 -0.0616431 -5.51424e-15)
(0.207397 -0.0488942 -2.27035e-14)
(0.18686 -0.0382435 -4.16769e-14)
(0.167335 -0.0292285 1.7123e-14)
(0.148446 -0.0214514 1.61536e-14)
(0.130962 -0.014814 2.843e-15)
(0.115296 -0.00941095 1.59142e-14)
(0.10111 -0.00531384 5.46852e-15)
(0.0885025 -0.00229955 -9.53693e-16)
(0.07745 -4.33601e-05 9.80714e-16)
(0.0677694 0.00161747 3.07649e-16)
(0.0592731 0.00274461 -9.28161e-16)
(0.0519218 0.00353399 -1.0695e-15)
(0.0470327 0.00422919 -2.07417e-16)
(0.0428455 0.0045963 4.65881e-17)
(0.0390346 0.00486819 1.84531e-15)
(0.035787 0.00498713 -3.5665e-16)
(0.033067 0.00518082 1.11271e-14)
(0.0320958 0.00542485 -1.23667e-14)
(0.03245 0.00696555 -5.58681e-15)
(-0.0530817 -0.908035 3.85877e-15)
(-0.117678 -0.897089 -1.29676e-15)
(-0.171942 -0.82281 -3.47823e-15)
(-0.253208 -0.854071 -2.98995e-15)
(-0.308164 -0.832135 1.30349e-14)
(-0.36077 -0.79553 -1.65449e-14)
(-0.421243 -0.773788 -4.31246e-15)
(-0.462107 -0.73181 3.20574e-14)
(-0.494929 -0.681837 1.82503e-14)
(-0.522477 -0.632052 3.44642e-14)
(-0.533889 -0.574212 7.66243e-14)
(-0.536437 -0.514383 6.26409e-14)
(-0.530441 -0.45544 -1.47054e-13)
(-0.514213 -0.397161 -2.37352e-13)
(-0.492109 -0.342325 4.05384e-14)
(-0.464662 -0.292024 3.03179e-13)
(-0.433862 -0.247005 6.28689e-14)
(-0.401917 -0.208232 -1.73392e-13)
(-0.39168 -0.18452 -3.22036e-14)
(-0.38662 -0.169186 3.12673e-14)
(-0.386295 -0.154677 -6.83166e-14)
(-0.389849 -0.136105 -8.74658e-14)
(-0.393245 -0.107554 9.38655e-15)
(-0.385901 -0.0668155 6.73709e-14)
(-0.35564 -0.0239563 5.89274e-14)
(-0.308046 0.00434612 -3.33376e-15)
(-0.261922 0.0126945 3.51403e-14)
(-0.229536 0.011283 6.2928e-15)
(-0.208368 0.01203 6.04786e-14)
(-0.189473 0.01532 -4.50716e-14)
(-0.170472 0.0166163 -1.57075e-13)
(-0.153537 0.015838 -5.02991e-14)
(-0.138355 0.0145557 2.80313e-14)
(-0.123618 0.0128854 1.50907e-14)
(-0.108501 0.0105743 -3.99236e-15)
(-0.0930581 0.00718271 5.40468e-15)
(-0.0872114 0.00303205 1.80332e-14)
(-0.20258 0.00424242 4.88381e-15)
(-0.180348 0.0282337 2.60114e-14)
(0.00896988 -0.865088 -8.69397e-15)
(0.0632579 -0.788397 -7.91595e-15)
(0.112973 -0.675196 -1.33182e-14)
(0.154276 -0.594463 -1.90647e-14)
(0.182639 -0.502549 3.05438e-14)
(0.213336 -0.454114 -4.27012e-14)
(0.257568 -0.437879 -1.81512e-14)
(0.302465 -0.418324 6.56574e-14)
(0.335867 -0.388375 -3.80461e-14)
(0.356228 -0.351097 6.96874e-14)
(0.368593 -0.313556 6.77765e-14)
(0.371361 -0.276243 4.41083e-14)
(0.364597 -0.239277 3.19692e-14)
(0.352512 -0.204908 4.83847e-14)
(0.335835 -0.173487 -1.38193e-14)
(0.315044 -0.144755 3.36248e-15)
(0.292995 -0.119624 3.48692e-14)
(0.269961 -0.097853 2.66334e-14)
(0.247205 -0.0793054 -2.58722e-15)
(0.22509 -0.0635914 -5.34872e-14)
(0.204147 -0.0504092 -9.59161e-15)
(0.184146 -0.0393064 1.73793e-16)
(0.164939 -0.0298935 -3.68452e-14)
(0.146257 -0.021831 4.02817e-15)
(0.129021 -0.0150404 -5.8866e-15)
(0.113583 -0.00954624 -1.2214e-14)
(0.0995997 -0.00532538 8.79309e-16)
(0.0871282 -0.0021837 8.22779e-17)
(0.0761601 0.000163593 4.75441e-17)
(0.0665444 0.00190057 -3.73131e-16)
(0.0581105 0.00310602 8.50052e-16)
(0.0507599 0.00394351 2.554e-15)
(0.045849 0.00461592 -7.93244e-16)
(0.0418161 0.00497267 -2.93768e-15)
(0.0381701 0.00520563 -1.27326e-15)
(0.0350689 0.00525817 8.98765e-15)
(0.0325007 0.00538642 -3.20379e-14)
(0.031563 0.00551188 -2.79233e-14)
(0.0322791 0.0067459 3.48908e-14)
(-0.0521473 -0.79128 -2.84249e-15)
(-0.108163 -0.782094 8.33308e-16)
(-0.15539 -0.722215 4.13936e-15)
(-0.226378 -0.7503 3.55839e-15)
(-0.274709 -0.73221 4.56391e-15)
(-0.321011 -0.701732 4.38241e-15)
(-0.374643 -0.684961 -1.62676e-14)
(-0.411438 -0.650706 -4.60382e-14)
(-0.441298 -0.609244 -4.27119e-14)
(-0.467017 -0.568088 -9.5891e-15)
(-0.478598 -0.519341 -5.52416e-14)
(-0.482841 -0.468704 -1.80234e-14)
(-0.479414 -0.418212 1.36665e-13)
(-0.466773 -0.367512 6.93887e-14)
(-0.44879 -0.319319 -3.36663e-15)
(-0.425673 -0.274546 -2.32088e-13)
(-0.399191 -0.233958 -6.23258e-14)
(-0.371479 -0.198453 2.14328e-13)
(-0.358282 -0.172678 1.02808e-13)
(-0.356057 -0.155901 -4.82751e-14)
(-0.357044 -0.140731 -5.63096e-15)
(-0.360495 -0.122169 4.79882e-14)
(-0.362814 -0.0965092 1.28794e-14)
(-0.356153 -0.0621438 -8.93737e-14)
(-0.330755 -0.0258338 -1.5037e-13)
(-0.290466 -0.000130172 4.52216e-14)
(-0.24998 0.00957707 -8.40895e-15)
(-0.219756 0.0101951 -9.45416e-15)
(-0.199037 0.0114305 -3.41721e-14)
(-0.181044 0.0144905 -2.73844e-14)
(-0.163599 0.0158258 4.63098e-14)
(-0.14867 0.0152039 1.63172e-13)
(-0.136401 0.014118 5.00498e-14)
(-0.125804 0.0128128 -1.28016e-13)
(-0.115345 0.010817 7.80487e-15)
(-0.107292 0.00821344 -5.03385e-14)
(-0.0810895 0.00379358 1.72764e-15)
(-0.133631 -0.00343042 -1.1323e-14)
(-0.177671 0.0294603 2.13912e-14)
(0.00243396 -0.75442 8.38712e-15)
(0.0503299 -0.690904 2.52497e-14)
(0.0950101 -0.596081 -5.83302e-14)
(0.132776 -0.527029 -7.25179e-15)
(0.159339 -0.449023 -1.21962e-13)
(0.190218 -0.416027 8.83627e-15)
(0.236292 -0.409009 3.3915e-14)
(0.276647 -0.39007 -1.36804e-13)
(0.307542 -0.363057 2.91382e-14)
(0.327076 -0.329843 -1.07739e-14)
(0.339935 -0.296838 -6.8372e-14)
(0.344612 -0.264107 -7.88287e-14)
(0.340629 -0.231197 -1.23297e-15)
(0.331843 -0.200259 6.00096e-14)
(0.318503 -0.17148 2.31693e-14)
(0.30094 -0.144644 -2.36432e-14)
(0.281784 -0.120693 -3.35688e-14)
(0.261198 -0.0995349 -9.57728e-15)
(0.240371 -0.0811943 1.79042e-14)
(0.219692 -0.0654307 4.5725e-14)
(0.199781 -0.0520556 4.63146e-14)
(0.180502 -0.0407068 4.27718e-14)
(0.16174 -0.0310485 -2.14442e-15)
(0.143455 -0.022806 -3.96572e-14)
(0.126599 -0.0159281 3.57984e-15)
(0.111491 -0.010394 -1.27728e-14)
(0.0977812 -0.00610339 -7.88338e-15)
(0.0855166 -0.00287649 -1.31178e-15)
(0.0746926 -0.000470318 4.18276e-16)
(0.0651925 0.00130827 1.13732e-15)
(0.0568587 0.00255083 -4.39827e-16)
(0.0495961 0.00337794 -2.53515e-15)
(0.0446236 0.00406839 2.26262e-15)
(0.0407452 0.00448411 3.90318e-16)
(0.0372703 0.00476788 -2.55525e-15)