/*--------------------------------*- C++ -*----------------------------------*\
| =========                 |                                                 |
| \\      /  F ield         | OpenFOAM: The Open Source CFD Toolbox           |
|  \\    /   O peration     | Version:  2312                                  |
|   \\  /    A nd           | Website:  www.openfoam.com                      |
|    \\/     M anipulation  |                                                 |
\*---------------------------------------------------------------------------*/
FoamFile
{
    version     2.0;
    format      ascii;
    arch        "LSB;label=32;scalar=64";
    class       volScalarField;
    location    "150";
    object      nut;
}
// * * * * * * * * * * * * * * * * * * * * * * * * * * * * * * * * * * * * * //

dimensions      [0 2 -1 0 0 0 0];

internalField   nonuniform List<scalar> 
10720
(
2.46082e-05
2.81847e-05
3.2978e-05
3.91992e-05
4.72375e-05
5.76188e-05
7.10577e-05
8.79207e-05
0.000109195
0.000135905
0.000169745
0.000214045
0.000272821
0.000353711
0.000469229
0.000641618
0.000907746
0.00134461
0.00208296
0.00347033
0.0061437
0.0122795
0.0273317
0.0694638
0.0962573
0.100756
0.100921
0.102928
0.105663
0.107193
0.106924
0.105238
0.102498
0.0988289
0.0940836
0.0881656
0.0798957
0.0701004
0.0438999
2.15253e-05
1.8862e-05
1.62472e-05
1.38513e-05
1.15985e-05
9.51684e-06
7.6686e-06
6.30949e-06
7.95535e-06
1.10077e-05
1.60461e-05
2.42366e-05
3.71924e-05
5.68347e-05
8.46325e-05
0.000122198
0.000172863
0.000244249
0.000351364
0.000520352
0.000804623
0.00129352
0.0022186
0.00394289
0.0077359
0.0154641
0.0344471
0.0688707
0.0952708
0.106204
0.109393
0.110282
0.110351
0.10983
0.108805
0.107391
0.105224
0.102771
0.0934257
5.12411e-06
5.01997e-06
4.92552e-06
4.84636e-06
4.75555e-06
4.67135e-06
4.6073e-06
4.54938e-06
4.52132e-06
4.52683e-06
4.56425e-06
4.70743e-06
5.4717e-06
7.65325e-06
1.37009e-05
3.03912e-05
7.05899e-05
0.000144756
0.000271522
0.000532644
0.00106659
0.00249811
0.00547001
0.0158329
0.0321865
0.0527337
0.0780352
0.106282
0.131702
0.148287
0.155411
0.156785
0.155551
0.152721
0.148774
0.143949
0.139174
0.131728
0.133826
5.20696e-06
5.31916e-06
5.41599e-06
5.54694e-06
5.68196e-06
5.82121e-06
5.96273e-06
6.09761e-06
6.0004e-06
5.83101e-06
5.62151e-06
5.37919e-06
5.10982e-06
4.81458e-06
4.48129e-06
4.1067e-06
3.66493e-06
3.15204e-06
2.53759e-06
1.83206e-06
1.06123e-06
4.0935e-07
5.27738e-08
1.2783e-09
4.50993e-08
0.000106671
0.000622944
0.00458644
0.0149601
0.0298008
0.044826
0.056048
0.0626939
0.0663925
0.0687347
0.0706905
0.0723967
0.0759564
0.0793368
6.24245e-06
6.26015e-06
6.2784e-06
6.29783e-06
6.3213e-06
6.34723e-06
6.37652e-06
6.41051e-06
6.45028e-06
6.49652e-06
6.55143e-06
6.6173e-06
6.69524e-06
6.80676e-06
6.88617e-06
6.59421e-06
5.13028e-06
4.16324e-06
7.47859e-07
8.83688e-05
6.80812e-06
5.04488e-05
6.79678e-05
0.000324761
0.00170818
0.00467534
0.0103197
0.0212518
0.0411139
0.0706105
0.105584
0.137558
0.160203
0.1737
0.181293
0.184964
0.186792
0.182559
0.191165
6.2288e-06
6.20954e-06
6.19492e-06
6.17435e-06
6.15721e-06
6.13863e-06
6.12047e-06
6.10419e-06
6.1138e-06
6.13378e-06
6.15745e-06
6.18278e-06
6.21262e-06
6.24564e-06
6.28267e-06
6.32342e-06
6.36955e-06
6.42225e-06
6.48525e-06
6.56192e-06
6.66032e-06
6.78721e-06
6.96534e-06
7.15987e-06
7.40258e-06
7.11001e-06
7.11973e-06
2.31377e-06
0.000104095
0.000868048
0.00322267
0.00791204
0.0147857
0.0231
0.0319028
0.0403751
0.0477656
0.0543805
0.0639932
6.07785e-06
6.07705e-06
6.07763e-06
6.07878e-06
6.0802e-06
6.0832e-06
6.08831e-06
6.0952e-06
6.10534e-06
6.11895e-06
6.13683e-06
6.16015e-06
6.19035e-06
6.22891e-06
6.27731e-06
6.34248e-06
6.27627e-06
6.08518e-06
4.59682e-06
2.10165e-06
1.31958e-09
6.08957e-07
3.83273e-07
3.10063e-05
0.000354154
0.000992994
0.00231191
0.00225966
0.00354281
0.00810268
0.0225917
0.0494779
0.0873723
0.127434
0.160425
0.183998
0.201331
0.21036
0.225945
6.07645e-06
6.07802e-06
6.07869e-06
6.08058e-06
6.08468e-06
6.08817e-06
6.0908e-06
6.09394e-06
6.09328e-06
6.09158e-06
6.08878e-06
6.0858e-06
6.08334e-06
6.08099e-06
6.07868e-06
6.07614e-06
6.07332e-06
6.06997e-06
6.0667e-06
6.06347e-06
6.06e-06
6.05617e-06
6.05135e-06
6.04713e-06
6.04223e-06
6.04857e-06
6.03646e-06
6.13286e-06
5.90532e-06
6.40905e-06
3.9594e-06
4.06465e-06
0.000247881
0.00112037
0.00322371
0.00721551
0.0135476
0.0224029
0.0399278
6.10171e-06
6.1022e-06
6.10257e-06
6.1032e-06
6.10448e-06
6.10617e-06
6.10856e-06
6.11181e-06
6.11606e-06
6.12163e-06
6.12887e-06
6.1383e-06
6.15063e-06
6.16648e-06
6.18785e-06
6.21286e-06
6.24842e-06
6.27951e-06
6.39284e-06
6.60462e-06
4.34831e-06
1.50565e-06
2.83743e-14
1.96416e-09
3.14083e-13
0
0
0.000489549
0.000780639
4.7341e-07
0.000324881
0.00358348
0.0162863
0.0443567
0.0874909
0.135079
0.177335
0.210038
0.240076
6.09988e-06
6.09812e-06
6.09698e-06
6.09478e-06
6.09487e-06
6.09474e-06
6.0937e-06
6.09343e-06
6.09439e-06
6.09595e-06
6.09732e-06
6.09913e-06
6.10115e-06
6.10313e-06
6.10534e-06
6.10774e-06
6.1104e-06
6.11334e-06
6.11661e-06
6.12016e-06
6.12401e-06
6.12816e-06
6.13275e-06
6.13779e-06
6.14413e-06
6.14942e-06
6.16558e-06
6.14053e-06
6.31131e-06
5.62993e-06
9.20492e-06
3.27578e-07
3.10459e-05
5.96662e-17
0.000755038
0.00171956
0.000790678
0.00178348
0.0140536
6.09537e-06
6.09539e-06
6.09611e-06
6.09687e-06
6.09746e-06
6.09841e-06
6.09962e-06
6.101e-06
6.10283e-06
6.10516e-06
6.10815e-06
6.1121e-06
6.11725e-06
6.12402e-06
6.13305e-06
6.1449e-06
6.16121e-06
6.17808e-06
6.21541e-06
6.3046e-06
6.57385e-06
6.3066e-06
3.78798e-06
1.30523e-06
2.07803e-10
4.77306e-09
2.01005e-09
1.23337e-11
0
1.16945e-09
3.88293e-05
0.000812713
0.0038298
0.00375773
0.0197938
0.0579602
0.115286
0.177419
0.231801
6.09406e-06
6.0936e-06
6.09296e-06
6.09149e-06
6.09119e-06
6.09165e-06
6.09143e-06
6.09225e-06
6.09368e-06
6.09499e-06
6.09622e-06
6.09737e-06
6.0985e-06
6.09947e-06
6.10053e-06
6.10161e-06
6.10278e-06
6.10402e-06
6.10534e-06
6.10669e-06
6.10807e-06
6.10942e-06
6.11072e-06
6.11192e-06
6.11291e-06
6.11385e-06
6.11455e-06
6.11632e-06
6.11712e-06
6.12132e-06
6.1262e-06
6.08619e-06
5.60301e-06
2.97159e-06
2.10798e-08
2.72053e-09
0.000177915
0.000465451
0.00248848
6.09416e-06
6.09399e-06
6.09441e-06
6.09476e-06
6.09506e-06
6.09555e-06
6.0961e-06
6.09657e-06
6.09714e-06
6.09794e-06
6.09905e-06
6.10051e-06
6.10242e-06
6.10491e-06
6.10818e-06
6.11266e-06
6.11851e-06
6.12497e-06
6.13349e-06
6.13781e-06
6.19808e-06
6.42669e-06
6.61075e-06
6.35271e-06
4.81097e-06
2.5723e-06
1.15408e-06
6.97599e-09
6.58379e-09
6.4072e-10
0
0
0
0.000865148
0.00480383
0.00903843
0.043883
0.116572
0.198567
6.09332e-06
6.09324e-06
6.09302e-06
6.09191e-06
6.0908e-06
6.09103e-06
6.09098e-06
6.09214e-06
6.09368e-06
6.09499e-06
6.09619e-06
6.0973e-06
6.09837e-06
6.09932e-06
6.10035e-06
6.1014e-06
6.10257e-06
6.10387e-06
6.10533e-06
6.10693e-06
6.1087e-06
6.11063e-06
6.11276e-06
6.11512e-06
6.1178e-06
6.12094e-06
6.12464e-06
6.12902e-06
6.13387e-06
6.14073e-06
6.14461e-06
6.17217e-06
6.16268e-06
5.80147e-06
5.34445e-06
1.05079e-06
1.02448e-08
3.36373e-11
8.25316e-05
6.09216e-06
6.09205e-06
6.09258e-06
6.09316e-06
6.09378e-06
6.09467e-06
6.09567e-06
6.09671e-06
6.09793e-06
6.09923e-06
6.10063e-06
6.10221e-06
6.10395e-06
6.10593e-06
6.10827e-06
6.11113e-06
6.11481e-06
6.1191e-06
6.12362e-06
6.12575e-06
6.13094e-06
6.14675e-06
6.25379e-06
6.42308e-06
6.8294e-06
6.82476e-06
6.57938e-06
5.01169e-06
2.81241e-06
3.29138e-07
1.23921e-08
7.13578e-10
0
0
0
0.0022008
0.00424313
0.0512569
0.144354
6.09168e-06
6.09207e-06
6.09231e-06
6.0918e-06
6.09026e-06
6.0903e-06
6.09058e-06
6.09196e-06
6.09339e-06
6.09456e-06
6.09566e-06
6.0967e-06
6.09767e-06
6.09852e-06
6.0994e-06
6.10029e-06
6.10125e-06
6.10229e-06
6.10345e-06
6.1047e-06
6.10607e-06
6.10752e-06
6.10909e-06
6.11077e-06
6.11254e-06
6.1145e-06
6.11667e-06
6.11903e-06
6.12157e-06
6.12419e-06
6.12722e-06
6.12895e-06
6.13644e-06
6.12249e-06
6.33457e-06
5.61679e-06
2.81721e-06
1.69285e-08
1.12411e-06
6.09075e-06
6.09069e-06
6.09131e-06
6.09199e-06
6.09267e-06
6.09356e-06
6.09448e-06
6.09536e-06
6.09632e-06
6.09727e-06
6.09821e-06
6.09918e-06
6.10011e-06
6.101e-06
6.10182e-06
6.10245e-06
6.10324e-06
6.10415e-06
6.1053e-06
6.10658e-06
6.10854e-06
6.10939e-06
6.11669e-06
6.12393e-06
6.22542e-06
6.44196e-06
6.71179e-06
7.192e-06
7.25195e-06
6.06596e-06
4.00947e-06
3.41391e-07
9.82457e-09
3.96177e-16
0
0
0.00118061
0.0090401
0.0843979
6.09053e-06
6.09122e-06
6.09179e-06
6.09183e-06
6.09014e-06
6.08997e-06
6.0905e-06
6.09175e-06
6.09301e-06
6.09408e-06
6.09512e-06
6.09608e-06
6.09698e-06
6.09777e-06
6.09857e-06
6.09937e-06
6.10022e-06
6.10113e-06
6.10215e-06
6.10326e-06
6.1045e-06
6.10586e-06
6.10739e-06
6.10909e-06
6.11097e-06
6.11315e-06
6.11566e-06
6.11854e-06
6.12183e-06
6.12558e-06
6.12991e-06
6.13468e-06
6.14107e-06
6.1427e-06
6.18161e-06
6.25778e-06
6.70245e-06
4.31151e-06
2.34514e-09
6.08973e-06
6.0898e-06
6.09058e-06
6.09138e-06
6.09216e-06
6.09309e-06
6.09402e-06
6.09491e-06
6.09588e-06
6.09686e-06
6.09788e-06
6.09898e-06
6.10015e-06
6.10141e-06
6.10277e-06
6.10425e-06
6.10592e-06
6.10782e-06
6.10968e-06
6.11132e-06
6.1125e-06
6.11394e-06
6.11515e-06
6.10945e-06
6.09658e-06
6.1137e-06
6.17448e-06
6.36782e-06
6.70876e-06
7.16318e-06
7.58624e-06
5.98286e-06
3.08605e-06
1.81212e-13
5.47763e-11
0
0
0.00293693
0.0407446
6.08964e-06
6.09048e-06
6.09127e-06
6.09175e-06
6.09008e-06
6.08977e-06
6.09036e-06
6.0915e-06
6.09263e-06
6.09359e-06
6.09454e-06
6.09542e-06
6.09624e-06
6.09697e-06
6.09772e-06
6.09843e-06
6.09918e-06
6.09997e-06
6.10085e-06
6.10181e-06
6.10289e-06
6.10408e-06
6.10542e-06
6.10691e-06
6.10855e-06
6.11042e-06
6.11255e-06
6.11495e-06
6.11764e-06
6.12066e-06
6.12395e-06
6.12781e-06
6.13109e-06
6.14033e-06
6.12753e-06
6.23169e-06
5.88139e-06
8.86054e-06
5.06724e-07
6.08909e-06
6.08934e-06
6.09025e-06
6.09109e-06
6.09189e-06
6.09277e-06
6.09362e-06
6.0944e-06
6.09522e-06
6.09605e-06
6.09691e-06
6.09782e-06
6.09877e-06
6.09977e-06
6.10083e-06
6.10193e-06
6.10307e-06
6.10422e-06
6.10551e-06
6.10713e-06
6.10904e-06
6.11128e-06
6.11412e-06
6.11694e-06
6.11313e-06
6.10257e-06
6.09169e-06
6.09301e-06
6.15268e-06
6.3224e-06
6.71224e-06
7.21819e-06
7.51088e-06
4.74347e-06
2.38888e-08
6.11002e-11
0
0.00034869
0.016834
6.08899e-06
6.08987e-06
6.09076e-06
6.09156e-06
6.09006e-06
6.08964e-06
6.09021e-06
6.09123e-06
6.09223e-06
6.0931e-06
6.09396e-06
6.09477e-06
6.09554e-06
6.09622e-06
6.09689e-06
6.09753e-06
6.09821e-06
6.09891e-06
6.09969e-06
6.10055e-06
6.10151e-06
6.10257e-06
6.10377e-06
6.10514e-06
6.10666e-06
6.10841e-06
6.11043e-06
6.11274e-06
6.11537e-06
6.11837e-06
6.12173e-06
6.12576e-06
6.12924e-06
6.13789e-06
6.12652e-06
6.20561e-06
5.88911e-06
7.26178e-06
4.31246e-06
6.08872e-06
6.08915e-06
6.09016e-06
6.09102e-06
6.0918e-06
6.09261e-06
6.09336e-06
6.09404e-06
6.09475e-06
6.09546e-06
6.0962e-06
6.09701e-06
6.09789e-06
6.09883e-06
6.09987e-06
6.10098e-06
6.1022e-06
6.10352e-06
6.10497e-06
6.1065e-06
6.10819e-06
6.11004e-06
6.11225e-06
6.11537e-06
6.11849e-06
6.11882e-06
6.11502e-06
6.10418e-06
6.09055e-06
6.09152e-06
6.14833e-06
6.37437e-06
6.76465e-06
7.9897e-06
5.95042e-06
1.60778e-08
7.54211e-15
0.000110449
0.00588601
6.0885e-06
6.08931e-06
6.09027e-06
6.09129e-06
6.08996e-06
6.08953e-06
6.09004e-06
6.09094e-06
6.09183e-06
6.09262e-06
6.09341e-06
6.09415e-06
6.09485e-06
6.09547e-06
6.0961e-06
6.09669e-06
6.0973e-06
6.09794e-06
6.09863e-06
6.09938e-06
6.10022e-06
6.10114e-06
6.1022e-06
6.1034e-06
6.10477e-06
6.10634e-06
6.10815e-06
6.11024e-06
6.11261e-06
6.1153e-06
6.11833e-06
6.12181e-06
6.12544e-06
6.13098e-06
6.13149e-06
6.15576e-06
6.09616e-06
6.26541e-06
6.20893e-06
6.08849e-06
6.08909e-06
6.09017e-06
6.09102e-06
6.09176e-06
6.09249e-06
6.09313e-06
6.09369e-06
6.09427e-06
6.09485e-06
6.09548e-06
6.09616e-06
6.09691e-06
6.09773e-06
6.09864e-06
6.09962e-06
6.10069e-06
6.10184e-06
6.10309e-06
6.1045e-06
6.10614e-06
6.10801e-06
6.11012e-06
6.11261e-06
6.11574e-06
6.11916e-06
6.12216e-06
6.12333e-06
6.11915e-06
6.10983e-06
6.09353e-06
6.10816e-06
6.14816e-06
6.52862e-06
8.30216e-06
5.13665e-06
5.03011e-09
5.0318e-06
0.00165309
6.08812e-06
6.08885e-06
6.08984e-06
6.09099e-06
6.08984e-06
6.08943e-06
6.08985e-06
6.09065e-06
6.09144e-06
6.09215e-06
6.09286e-06
6.09354e-06
6.09418e-06
6.09476e-06
6.09534e-06
6.09589e-06
6.09645e-06
6.09702e-06
6.09762e-06
6.09827e-06
6.09899e-06
6.0998e-06
6.10074e-06
6.10182e-06
6.10305e-06
6.10448e-06
6.10614e-06
6.10806e-06
6.11026e-06
6.11276e-06
6.11562e-06
6.11885e-06
6.12254e-06
6.12664e-06
6.13189e-06
6.13491e-06
6.15454e-06
6.09531e-06
6.31888e-06
6.08837e-06
6.0891e-06
6.09021e-06
6.09103e-06
6.09171e-06
6.09236e-06
6.09288e-06
6.09334e-06
6.09383e-06
6.09431e-06
6.09484e-06
6.09544e-06
6.0961e-06
6.09684e-06
6.09766e-06
6.09856e-06
6.09956e-06
6.10065e-06
6.10184e-06
6.10316e-06
6.10466e-06
6.10636e-06
6.1083e-06
6.11051e-06
6.11304e-06
6.11602e-06
6.11951e-06
6.12357e-06
6.12719e-06
6.12931e-06
6.12595e-06
6.11836e-06
6.09758e-06
6.0586e-06
6.38298e-06
9.47803e-06
1.06046e-06
6.44894e-09
0.000255446
6.08788e-06
6.08854e-06
6.08953e-06
6.09074e-06
6.08973e-06
6.08932e-06
6.08967e-06
6.09037e-06
6.09107e-06
6.0917e-06
6.09235e-06
6.09297e-06
6.09356e-06
6.0941e-06
6.09463e-06
6.09512e-06
6.09562e-06
6.09612e-06
6.09666e-06
6.09723e-06
6.09787e-06
6.09859e-06
6.09941e-06
6.10037e-06
6.10148e-06
6.10277e-06
6.10427e-06
6.10601e-06
6.10801e-06
6.1103e-06
6.11292e-06
6.11588e-06
6.11929e-06
6.12302e-06
6.12816e-06
6.13061e-06
6.14715e-06
6.11996e-06
6.19972e-06
6.08836e-06
6.08918e-06
6.09029e-06
6.09104e-06
6.09165e-06
6.0922e-06
6.09263e-06
6.09301e-06
6.09341e-06
6.09383e-06
6.09429e-06
6.0948e-06
6.09539e-06
6.09603e-06
6.09677e-06
6.09758e-06
6.09848e-06
6.09947e-06
6.10056e-06
6.10176e-06
6.10315e-06
6.10473e-06
6.10654e-06
6.10861e-06
6.1109e-06
6.11347e-06
6.11642e-06
6.11996e-06
6.12423e-06
6.12921e-06
6.13423e-06
6.13888e-06
6.13387e-06
6.12797e-06
5.85991e-06
7.23742e-06
7.96322e-06
5.66057e-12
2.29553e-05
6.08783e-06
6.08843e-06
6.08933e-06
6.09054e-06
6.08966e-06
6.08925e-06
6.08951e-06
6.09011e-06
6.09072e-06
6.09128e-06
6.09187e-06
6.09243e-06
6.09296e-06
6.09345e-06
6.09393e-06
6.09439e-06
6.09485e-06
6.09531e-06
6.09579e-06
6.0963e-06
6.09686e-06
6.09748e-06
6.09821e-06
6.09905e-06
6.10004e-06
6.1012e-06
6.10255e-06
6.10412e-06
6.10594e-06
6.10804e-06
6.11044e-06
6.11317e-06
6.11631e-06
6.11987e-06
6.12421e-06
6.12839e-06
6.13625e-06
6.13812e-06
6.15369e-06
6.08851e-06
6.08935e-06
6.09041e-06
6.09108e-06
6.09159e-06
6.09204e-06
6.09239e-06
6.09271e-06
6.09304e-06
6.09339e-06
6.09379e-06
6.09424e-06
6.09475e-06
6.09533e-06
6.096e-06
6.09673e-06
6.09756e-06
6.09846e-06
6.09947e-06
6.10059e-06
6.10185e-06
6.1033e-06
6.10497e-06
6.10687e-06
6.109e-06
6.11136e-06
6.11401e-06
6.11707e-06
6.1207e-06
6.12512e-06
6.13046e-06
6.13786e-06
6.14455e-06
6.15738e-06
6.11853e-06
5.58538e-06
1.14979e-05
6.69956e-09
0
6.08797e-06
6.08846e-06
6.08924e-06
6.0904e-06
6.08962e-06
6.0892e-06
6.08939e-06
6.08989e-06
6.09042e-06
6.09091e-06
6.09143e-06
6.09194e-06
6.09242e-06
6.09286e-06
6.0933e-06
6.09371e-06
6.09413e-06
6.09454e-06
6.09497e-06
6.09542e-06
6.09592e-06
6.09646e-06
6.0971e-06
6.09784e-06
6.09871e-06
6.09974e-06
6.10095e-06
6.10236e-06
6.10401e-06
6.10591e-06
6.10809e-06
6.1106e-06
6.11347e-06
6.11678e-06
6.12065e-06
6.12517e-06
6.13036e-06
6.13836e-06
6.14429e-06
6.08879e-06
6.08961e-06
6.09058e-06
6.09115e-06
6.09156e-06
6.09192e-06
6.0922e-06
6.09244e-06
6.09272e-06
6.09302e-06
6.09336e-06
6.09377e-06
6.09423e-06
6.09475e-06
6.09535e-06
6.09601e-06
6.09676e-06
6.09759e-06
6.09851e-06
6.09952e-06
6.10068e-06
6.10201e-06
6.10354e-06
6.10528e-06
6.10724e-06
6.10943e-06
6.11189e-06
6.1147e-06
6.11797e-06
6.1218e-06
6.12653e-06
6.13152e-06
6.14427e-06
6.12791e-06
6.30814e-06
5.36932e-06
9.60203e-06
1.19531e-06
2.35439e-10
6.08827e-06
6.08862e-06
6.08923e-06
6.09031e-06
6.08961e-06
6.08918e-06
6.08929e-06
6.0897e-06
6.09015e-06
6.09058e-06
6.09104e-06
6.09148e-06
6.09191e-06
6.09231e-06
6.0927e-06
6.09308e-06
6.09346e-06
6.09383e-06
6.09422e-06
6.09462e-06
6.09506e-06
6.09553e-06
6.09608e-06
6.09673e-06
6.09749e-06
6.09841e-06
6.09949e-06
6.10076e-06
6.10224e-06
6.10396e-06
6.10594e-06
6.10822e-06
6.11085e-06
6.1139e-06
6.11745e-06
6.12167e-06
6.12647e-06
6.13377e-06
6.14096e-06
6.08916e-06
6.08993e-06
6.0908e-06
6.09124e-06
6.09156e-06
6.09184e-06
6.09205e-06
6.09224e-06
6.09246e-06
6.09271e-06
6.09301e-06
6.09336e-06
6.09377e-06
6.09424e-06
6.09477e-06
6.09538e-06
6.09606e-06
6.09681e-06
6.09766e-06
6.09859e-06
6.09964e-06
6.10085e-06
6.10224e-06
6.10383e-06
6.10562e-06
6.10762e-06
6.10989e-06
6.1125e-06
6.11553e-06
6.11902e-06
6.12351e-06
6.12691e-06
6.1406e-06
6.11448e-06
6.28199e-06
5.7456e-06
7.13982e-06
6.13387e-06
3.54062e-08
6.08866e-06
6.08889e-06
6.08929e-06
6.09026e-06
6.08962e-06
6.08918e-06
6.08922e-06
6.08956e-06
6.08993e-06
6.09029e-06
6.09069e-06
6.09108e-06
6.09146e-06
6.09182e-06
6.09217e-06
6.09251e-06
6.09285e-06
6.09319e-06
6.09353e-06
6.09389e-06
6.09427e-06
6.09468e-06
6.09515e-06
6.09572e-06
6.09639e-06
6.09719e-06
6.09815e-06
6.09928e-06
6.1006e-06
6.10215e-06
6.10394e-06
6.10601e-06
6.1084e-06
6.11118e-06
6.11445e-06
6.11831e-06
6.12293e-06
6.12921e-06
6.13709e-06
6.08958e-06
6.09027e-06
6.09103e-06
6.09135e-06
6.09158e-06
6.09179e-06
6.09193e-06
6.09207e-06
6.09226e-06
6.09246e-06
6.09271e-06
6.09302e-06
6.09338e-06
6.0938e-06
6.09429e-06
6.09483e-06
6.09546e-06
6.09615e-06
6.09692e-06
6.09778e-06
6.09874e-06
6.09984e-06
6.1011e-06
6.10255e-06
6.10417e-06
6.10599e-06
6.10807e-06
6.11045e-06
6.11325e-06
6.11646e-06
6.12064e-06
6.124e-06
6.13445e-06
6.12236e-06
6.19165e-06
6.09234e-06
5.98926e-06
8.36431e-06
1.27048e-06
6.08914e-06
6.08925e-06
6.08945e-06
6.09026e-06
6.08965e-06
6.0892e-06
6.08918e-06
6.08944e-06
6.08975e-06
6.09006e-06
6.0904e-06
6.09073e-06
6.09106e-06
6.09137e-06
6.09169e-06
6.09199e-06
6.0923e-06
6.0926e-06
6.0929e-06
6.09321e-06
6.09355e-06
6.0939e-06
6.09431e-06
6.09479e-06
6.09538e-06
6.09608e-06
6.09693e-06
6.09793e-06
6.0991e-06
6.10048e-06
6.10209e-06
6.10396e-06
6.10613e-06
6.10865e-06
6.11164e-06
6.11517e-06
6.11949e-06
6.12514e-06
6.13282e-06
6.09003e-06
6.09062e-06
6.09123e-06
6.09145e-06
6.09161e-06
6.09175e-06
6.09184e-06
6.09195e-06
6.09209e-06
6.09226e-06
6.09247e-06
6.09274e-06
6.09305e-06
6.09343e-06
6.09386e-06
6.09435e-06
6.09491e-06
6.09554e-06
6.09625e-06
6.09703e-06
6.09791e-06
6.09892e-06
6.10007e-06
6.10139e-06
6.10287e-06
6.10453e-06
6.10642e-06
6.1086e-06
6.11115e-06
6.11411e-06
6.11782e-06
6.12161e-06
6.12813e-06
6.13131e-06
6.13517e-06
6.22458e-06
5.7816e-06
7.71605e-06
4.17094e-06
6.08968e-06
6.08973e-06
6.08974e-06
6.0903e-06
6.08971e-06
6.08924e-06
6.08917e-06
6.08937e-06
6.08962e-06
6.08988e-06
6.09016e-06
6.09045e-06
6.09073e-06
6.091e-06
6.09128e-06
6.09154e-06
6.09181e-06
6.09207e-06
6.09233e-06
6.0926e-06
6.09289e-06
6.09319e-06
6.09354e-06
6.09395e-06
6.09445e-06
6.09507e-06
6.09582e-06
6.0967e-06
6.09774e-06
6.09897e-06
6.10041e-06
6.10209e-06
6.10405e-06
6.10633e-06
6.10906e-06
6.11228e-06
6.11626e-06
6.12142e-06
6.12863e-06
6.09047e-06
6.09093e-06
6.09141e-06
6.09153e-06
6.09163e-06
6.09172e-06
6.09178e-06
6.09185e-06
6.09196e-06
6.09209e-06
6.09226e-06
6.09249e-06
6.09276e-06
6.09308e-06
6.09346e-06
6.0939e-06
6.09441e-06
6.09498e-06
6.09562e-06
6.09634e-06
6.09715e-06
6.09806e-06
6.09912e-06
6.10032e-06
6.10167e-06
6.10318e-06
6.10491e-06
6.10691e-06
6.10923e-06
6.11196e-06
6.11522e-06
6.11918e-06
6.12335e-06
6.13275e-06
6.11941e-06
6.21811e-06
5.91826e-06
6.75772e-06
5.99466e-06
6.09024e-06
6.09027e-06
6.09013e-06
6.09039e-06
6.08979e-06
6.08931e-06
6.0892e-06
6.08935e-06
6.08955e-06
6.08974e-06
6.08998e-06
6.09022e-06
6.09045e-06
6.09068e-06
6.09091e-06
6.09114e-06
6.09136e-06
6.09159e-06
6.09182e-06
6.09205e-06
6.09229e-06
6.09255e-06
6.09285e-06
6.0932e-06
6.09363e-06
6.09417e-06
6.09482e-06
6.0956e-06
6.09652e-06
6.0976e-06
6.09888e-06
6.10039e-06
6.10214e-06
6.1042e-06
6.10667e-06
6.10961e-06
6.11327e-06
6.11798e-06
6.12469e-06
6.09086e-06
6.09119e-06
6.09156e-06
6.09161e-06
6.09166e-06
6.09172e-06
6.09174e-06
6.09178e-06
6.09185e-06
6.09195e-06
6.09209e-06
6.09227e-06
6.0925e-06
6.09278e-06
6.09312e-06
6.09351e-06
6.09396e-06
6.09448e-06
6.09506e-06
6.09571e-06
6.09645e-06
6.09729e-06
6.09825e-06
6.09935e-06
6.10058e-06
6.10196e-06
6.10354e-06
6.10536e-06
6.10747e-06
6.10998e-06
6.1129e-06
6.11666e-06
6.12011e-06
6.12903e-06
6.12131e-06
6.17592e-06
6.06686e-06
6.26352e-06
6.42743e-06
6.09075e-06
6.09081e-06
6.09057e-06
6.09052e-06
6.0899e-06
6.08941e-06
6.08927e-06
6.08937e-06
6.08951e-06
6.08966e-06
6.08985e-06
6.09004e-06
6.09023e-06
6.09041e-06
6.0906e-06
6.09079e-06
6.09098e-06
6.09116e-06
6.09136e-06
6.09156e-06
6.09176e-06
6.09198e-06
6.09222e-06
6.09252e-06
6.09289e-06
6.09335e-06
6.09391e-06
6.09459e-06
6.09539e-06
6.09634e-06
6.09747e-06
6.09881e-06
6.10038e-06
6.10223e-06
6.10446e-06
6.10713e-06
6.11046e-06
6.11475e-06
6.121e-06
6.09119e-06
6.09142e-06
6.0917e-06
6.09171e-06
6.09172e-06
6.09174e-06
6.09173e-06
6.09174e-06
6.09178e-06
6.09184e-06
6.09194e-06
6.09209e-06
6.09229e-06
6.09253e-06
6.09283e-06
6.09317e-06
6.09358e-06
6.09404e-06
6.09456e-06
6.09515e-06
6.09582e-06
6.09658e-06
6.09745e-06
6.09845e-06
6.09956e-06
6.10083e-06
6.10227e-06
6.10393e-06
6.10586e-06
6.10815e-06
6.11082e-06
6.1142e-06
6.11761e-06
6.12419e-06
6.12466e-06
6.14513e-06
6.13749e-06
6.11812e-06
6.34588e-06
6.09118e-06
6.09129e-06
6.09098e-06
6.09068e-06
6.09005e-06
6.08955e-06
6.08938e-06
6.08943e-06
6.08953e-06
6.08963e-06
6.08976e-06
6.08991e-06
6.09005e-06
6.09019e-06
6.09034e-06
6.09048e-06
6.09064e-06
6.09079e-06
6.09095e-06
6.09111e-06
6.09128e-06
6.09146e-06
6.09165e-06
6.0919e-06
6.09221e-06
6.0926e-06
6.09308e-06
6.09367e-06
6.09437e-06
6.0952e-06
6.0962e-06
6.09738e-06
6.09877e-06
6.10042e-06
6.10242e-06
6.10484e-06
6.10787e-06
6.11176e-06
6.1175e-06
6.09147e-06
6.09163e-06
6.09187e-06
6.09183e-06
6.09181e-06
6.0918e-06
6.09175e-06
6.09173e-06
6.09174e-06
6.09178e-06
6.09186e-06
6.09199e-06
6.09215e-06
6.09237e-06
6.09263e-06
6.09293e-06
6.09329e-06
6.0937e-06
6.09417e-06
6.0947e-06
6.09529e-06
6.09597e-06
6.09675e-06
6.09764e-06
6.09864e-06
6.09979e-06
6.1011e-06
6.10261e-06
6.10437e-06
6.10645e-06
6.1089e-06
6.1119e-06
6.11531e-06
6.12011e-06
6.12476e-06
6.13101e-06
6.15111e-06
6.11183e-06
6.22452e-06
6.09155e-06
6.09172e-06
6.09136e-06
6.09085e-06
6.09022e-06
6.08973e-06
6.08953e-06
6.08953e-06
6.08958e-06
6.08963e-06
6.08971e-06
6.0898e-06
6.08989e-06
6.08999e-06
6.0901e-06
6.09021e-06
6.09033e-06
6.09045e-06
6.09057e-06
6.0907e-06
6.09084e-06
6.09098e-06
6.09113e-06
6.09133e-06
6.09158e-06
6.09192e-06
6.09233e-06
6.09283e-06
6.09344e-06
6.09416e-06
6.09503e-06
6.09607e-06
6.0973e-06
6.09878e-06
6.10057e-06
6.10274e-06
6.10548e-06
6.10901e-06
6.11419e-06
6.09174e-06
6.09187e-06
6.09206e-06
6.09198e-06
6.09192e-06
6.09187e-06
6.0918e-06
6.09176e-06
6.09176e-06
6.09179e-06
6.09186e-06
6.09198e-06
6.09212e-06
6.09231e-06
6.09253e-06
6.0928e-06
6.09311e-06
6.09347e-06
6.09388e-06
6.09435e-06
6.09487e-06
6.09547e-06
6.09615e-06
6.09694e-06
6.09783e-06
6.09885e-06
6.10003e-06
6.10139e-06
6.10299e-06
6.10487e-06
6.1071e-06
6.10979e-06
6.11304e-06
6.11694e-06
6.12241e-06
6.12589e-06
6.1437e-06
6.13034e-06
6.16513e-06
6.09189e-06
6.09209e-06
6.09172e-06
6.09105e-06
6.09042e-06
6.08994e-06
6.08971e-06
6.08966e-06
6.08965e-06
6.08964e-06
6.08967e-06
6.08971e-06
6.08976e-06
6.08982e-06
6.08989e-06
6.08997e-06
6.09005e-06
6.09014e-06
6.09023e-06
6.09033e-06
6.09043e-06
6.09053e-06
6.09065e-06
6.0908e-06
6.09101e-06
6.09129e-06
6.09164e-06
6.09207e-06
6.09259e-06
6.09321e-06
6.09397e-06
6.09488e-06
6.09596e-06
6.09727e-06
6.09886e-06
6.10081e-06
6.10328e-06
6.10646e-06
6.11111e-06
6.09203e-06
6.09212e-06
6.09227e-06
6.09213e-06
6.09204e-06
6.09197e-06
6.09189e-06
6.09186e-06
6.09187e-06
6.0919e-06
6.09197e-06
6.09207e-06
6.0922e-06
6.09236e-06
6.09255e-06
6.09278e-06
6.09305e-06
6.09336e-06
6.09372e-06
6.09412e-06
6.09458e-06
6.0951e-06
6.09569e-06
6.09637e-06
6.09715e-06
6.09805e-06
6.09909e-06
6.10031e-06
6.10174e-06
6.10343e-06
6.10544e-06
6.10786e-06
6.11082e-06
6.11431e-06
6.11924e-06
6.12339e-06
6.1343e-06
6.13923e-06
6.14765e-06
6.09222e-06
6.09244e-06
6.09205e-06
6.09126e-06
6.09065e-06
6.09017e-06
6.08991e-06
6.0898e-06
6.08972e-06
6.08965e-06
6.08963e-06
6.08962e-06
6.08963e-06
6.08966e-06
6.08969e-06
6.08974e-06
6.08979e-06
6.08984e-06
6.08991e-06
6.08997e-06
6.09005e-06
6.09012e-06
6.0902e-06
6.09031e-06
6.09048e-06
6.09071e-06
6.091e-06
6.09135e-06
6.0918e-06
6.09233e-06
6.09298e-06
6.09377e-06
6.09472e-06
6.09587e-06
6.09728e-06
6.09902e-06
6.10124e-06
6.1041e-06
6.10825e-06
6.09232e-06
6.09238e-06
6.09246e-06
6.09229e-06
6.09218e-06
6.09212e-06
6.09206e-06
6.09205e-06
6.09207e-06
6.0921e-06
6.09217e-06
6.09225e-06
6.09236e-06
6.09249e-06
6.09266e-06
6.09285e-06
6.09308e-06
6.09335e-06
6.09365e-06
6.094e-06
6.0944e-06
6.09484e-06
6.09535e-06
6.09594e-06
6.09661e-06
6.09739e-06
6.0983e-06
6.09937e-06
6.10064e-06
6.10214e-06
6.10394e-06
6.1061e-06
6.10876e-06
6.11195e-06
6.11614e-06
6.12092e-06
6.12774e-06
6.1383e-06
6.14386e-06
6.09255e-06
6.09275e-06
6.09236e-06
6.09149e-06
6.0909e-06
6.09042e-06
6.09011e-06
6.08993e-06
6.08979e-06
6.08966e-06
6.08959e-06
6.08954e-06
6.08951e-06
6.0895e-06
6.08951e-06
6.08952e-06
6.08954e-06
6.08957e-06
6.08961e-06
6.08965e-06
6.08969e-06
6.08974e-06
6.08979e-06
6.08986e-06
6.08998e-06
6.09016e-06
6.0904e-06
6.0907e-06
6.09107e-06
6.09152e-06
6.09208e-06
6.09276e-06
6.09359e-06
6.09459e-06
6.09584e-06
6.09739e-06
6.09936e-06
6.10193e-06
6.10561e-06
6.09261e-06
6.09262e-06
6.09265e-06
6.09245e-06
6.09236e-06
6.09233e-06
6.09231e-06
6.09231e-06
6.09234e-06
6.09237e-06
6.09243e-06
6.09249e-06
6.09258e-06
6.09269e-06
6.09283e-06
6.09299e-06
6.09318e-06
6.0934e-06
6.09366e-06
6.09396e-06
6.0943e-06
6.09468e-06
6.09512e-06
6.09562e-06
6.0962e-06
6.09687e-06
6.09766e-06
6.0986e-06
6.09971e-06
6.10103e-06
6.10262e-06
6.10454e-06
6.10689e-06
6.10978e-06
6.11338e-06
6.11811e-06
6.12338e-06
6.13359e-06
6.14104e-06
6.09287e-06
6.09303e-06
6.09264e-06
6.09173e-06
6.09117e-06
6.0907e-06
6.09032e-06
6.09006e-06
6.08984e-06
6.08967e-06
6.08955e-06
6.08946e-06
6.0894e-06
6.08936e-06
6.08934e-06
6.08932e-06
6.08932e-06
6.08932e-06
6.08933e-06
6.08934e-06
6.08936e-06
6.08938e-06
6.0894e-06
6.08944e-06
6.08953e-06
6.08966e-06
6.08985e-06
6.09009e-06
6.0904e-06
6.09078e-06
6.09125e-06
6.09184e-06
6.09255e-06
6.09342e-06
6.09451e-06
6.09588e-06
6.09763e-06
6.09992e-06
6.10317e-06
6.09289e-06
6.09287e-06
6.09283e-06
6.09265e-06
6.09261e-06
6.09262e-06
6.09262e-06
6.09264e-06
6.09267e-06
6.09269e-06
6.09273e-06
6.09279e-06
6.09285e-06
6.09294e-06
6.09305e-06
6.09317e-06
6.09333e-06
6.09351e-06
6.09373e-06
6.09398e-06
6.09426e-06
6.09459e-06
6.09496e-06
6.09539e-06
6.09588e-06
6.09646e-06
6.09715e-06
6.09796e-06
6.09893e-06
6.10008e-06
6.10148e-06
6.10317e-06
6.10524e-06
6.10782e-06
6.11097e-06
6.11526e-06
6.11998e-06
6.12861e-06
6.13676e-06
6.09317e-06
6.09329e-06
6.0929e-06
6.09199e-06
6.09145e-06
6.09098e-06
6.09051e-06
6.09017e-06
6.0899e-06
6.08967e-06
6.08951e-06
6.0894e-06
6.0893e-06
6.08923e-06
6.08918e-06
6.08914e-06
6.08911e-06
6.08909e-06
6.08908e-06
6.08907e-06
6.08906e-06
6.08905e-06
6.08904e-06
6.08906e-06
6.0891e-06
6.0892e-06
6.08934e-06
6.08953e-06
6.08978e-06
6.09009e-06
6.09049e-06
6.09098e-06
6.09159e-06
6.09234e-06
6.09329e-06
6.09449e-06
6.09603e-06
6.09807e-06
6.10091e-06
6.09318e-06
6.09312e-06
6.09302e-06
6.09292e-06
6.09292e-06
6.09296e-06
6.09298e-06
6.093e-06
6.09303e-06
6.09305e-06
6.09308e-06
6.09312e-06
6.09317e-06
6.09324e-06
6.09332e-06
6.09341e-06
6.09354e-06
6.09368e-06
6.09385e-06
6.09406e-06
6.09429e-06
6.09456e-06
6.09487e-06
6.09522e-06
6.09564e-06
6.09613e-06
6.09672e-06
6.09743e-06
6.09827e-06
6.09928e-06
6.1005e-06
6.10198e-06
6.1038e-06
6.10607e-06
6.10886e-06
6.11263e-06
6.11693e-06
6.1243e-06
6.13183e-06
6.09343e-06
6.09353e-06
6.09313e-06
6.09225e-06
6.09169e-06
6.09122e-06
6.09067e-06
6.09027e-06
6.08995e-06
6.08969e-06
6.08949e-06
6.08934e-06
6.08922e-06
6.08912e-06
6.08904e-06
6.08898e-06
6.08893e-06
6.08889e-06
6.08885e-06
6.08882e-06
6.08879e-06
6.08875e-06
6.08872e-06
6.0887e-06
6.08872e-06
6.08878e-06
6.08888e-06
6.08902e-06
6.08922e-06
6.08946e-06
6.08979e-06
6.09019e-06
6.09071e-06
6.09135e-06
6.09217e-06
6.09321e-06
6.09456e-06
6.09637e-06
6.09884e-06
6.09347e-06
6.09336e-06
6.09323e-06
6.09324e-06
6.09328e-06
6.09333e-06
6.09337e-06
6.09341e-06
6.09345e-06
6.09346e-06
6.09348e-06
6.09351e-06
6.09354e-06
6.09358e-06
6.09364e-06
6.09371e-06
6.0938e-06
6.09391e-06
6.09404e-06
6.0942e-06
6.09438e-06
6.0946e-06
6.09484e-06
6.09513e-06
6.09547e-06
6.09588e-06
6.09638e-06
6.09699e-06
6.09771e-06
6.09859e-06
6.09965e-06
6.10095e-06
6.10254e-06
6.10453e-06
6.10698e-06
6.11029e-06
6.11412e-06
6.12063e-06
6.12707e-06
6.09367e-06
6.09374e-06
6.09333e-06
6.09247e-06
6.0919e-06
6.0914e-06
6.09083e-06
6.09038e-06
6.09001e-06
6.08971e-06
6.08947e-06
6.08929e-06
6.08914e-06
6.08902e-06
6.08893e-06
6.08884e-06
6.08877e-06
6.0887e-06
6.08865e-06
6.08859e-06
6.08854e-06
6.08849e-06
6.08843e-06
6.08839e-06
6.08837e-06
6.0884e-06
6.08846e-06
6.08856e-06
6.0887e-06
6.08889e-06
6.08915e-06
6.08948e-06
6.0899e-06
6.09044e-06
6.09114e-06
6.09204e-06
6.09321e-06
6.09479e-06
6.09692e-06
6.09373e-06
6.09359e-06
6.09348e-06
6.09358e-06
6.09365e-06
6.09373e-06
6.09381e-06
6.09387e-06
6.0939e-06
6.09392e-06
6.09393e-06
6.09394e-06
6.09395e-06
6.09397e-06
6.09401e-06
6.09405e-06
6.09411e-06
6.09418e-06
6.09428e-06
6.09439e-06
6.09453e-06
6.0947e-06
6.09489e-06
6.09511e-06
6.09538e-06
6.09571e-06
6.09613e-06
6.09663e-06
6.09725e-06
6.09801e-06
6.09892e-06
6.10005e-06
6.10144e-06
6.10318e-06
6.10532e-06
6.10822e-06
6.11157e-06
6.11739e-06
6.12278e-06
6.09387e-06
6.09391e-06
6.0935e-06
6.09265e-06
6.09206e-06
6.09155e-06
6.09098e-06
6.09048e-06
6.09006e-06
6.08972e-06
6.08946e-06
6.08925e-06
6.08908e-06
6.08894e-06
6.08882e-06
6.08872e-06
6.08863e-06
6.08855e-06
6.08847e-06
6.08839e-06
6.08832e-06
6.08825e-06
6.08817e-06
6.0881e-06
6.08806e-06
6.08805e-06
6.08808e-06