/*--------------------------------*- C++ -*----------------------------------*\
| =========                 |                                                 |
| \\      /  F ield         | OpenFOAM: The Open Source CFD Toolbox           |
|  \\    /   O peration     | Version:  2312                                  |
|   \\  /    A nd           | Website:  www.openfoam.com                      |
|    \\/     M anipulation  |                                                 |
\*---------------------------------------------------------------------------*/
FoamFile
{
    version     2.0;
    format      ascii;
    arch        "LSB;label=32;scalar=64";
    class       volScalarField;
    location    "150";
    object      nuTilda;
}
// * * * * * * * * * * * * * * * * * * * * * * * * * * * * * * * * * * * * * //

dimensions      [0 2 -1 0 0 0 0];

internalField   nonuniform List<scalar> 
10720
(
6.18441e-05
6.49692e-05
6.89639e-05
7.39259e-05
8.01157e-05
8.79412e-05
9.80433e-05
0.000110957
0.000127883
0.000150247
0.000180139
0.00022113
0.000277396
0.000356505
0.000470838
0.000642483
0.000908179
0.00134481
0.00208304
0.00347036
0.00614371
0.0122795
0.0273317
0.0694638
0.0962573
0.100756
0.100921
0.102928
0.105663
0.107193
0.106924
0.105238
0.102498
0.0988289
0.0940836
0.0881656
0.0798957
0.0701004
0.0438999
5.90128e-05
5.64304e-05
5.3732e-05
5.10702e-05
4.83426e-05
4.55525e-05
4.27641e-05
4.04443e-05
4.32209e-05
4.75811e-05
5.35163e-05
6.15103e-05
7.23465e-05
8.73528e-05
0.000108408
0.000138619
0.000182964
0.000249854
0.000354194
0.000521664
0.000805174
0.00129374
0.00221868
0.00394291
0.0077359
0.0154641
0.0344471
0.0688707
0.0952708
0.106204
0.109393
0.110282
0.110351
0.10983
0.108805
0.107391
0.105224
0.102771
0.0934257
3.81512e-05
3.79342e-05
3.77349e-05
3.75659e-05
3.73699e-05
3.7186e-05
3.70446e-05
3.69157e-05
3.68529e-05
3.68652e-05
3.69489e-05
3.72651e-05
3.88556e-05
4.27394e-05
5.08956e-05
6.68314e-05
9.76899e-05
0.000157913
0.000276137
0.000533896
0.0010669
0.00249817
0.00547002
0.0158329
0.0321865
0.0527337
0.0780352
0.106282
0.131702
0.148287
0.155411
0.156785
0.155551
0.152721
0.148774
0.143949
0.139174
0.131728
0.133826
3.83218e-05
3.85501e-05
3.87447e-05
3.90043e-05
3.9268e-05
3.95358e-05
3.98039e-05
4.00557e-05
3.98745e-05
3.95545e-05
3.91504e-05
3.8671e-05
3.81216e-05
3.74976e-05
3.67628e-05
3.5893e-05
3.47971e-05
3.34081e-05
3.15254e-05
2.89256e-05
2.5095e-05
1.96676e-05
1.17365e-05
4.62521e-06
1.12829e-05
0.000125833
0.000623863
0.00458646
0.0149601
0.0298008
0.044826
0.056048
0.0626939
0.0663925
0.0687347
0.0706905
0.0723967
0.0759564
0.0793368
4.03222e-05
4.03545e-05
4.03878e-05
4.04231e-05
4.04657e-05
4.05127e-05
4.05655e-05
4.06267e-05
4.06981e-05
4.07807e-05
4.08783e-05
4.09947e-05
4.11315e-05
4.13256e-05
4.14627e-05
4.0954e-05
3.81639e-05
3.60275e-05
2.2935e-05
0.000111305
4.1328e-05
8.25484e-05
9.57123e-05
0.000328053
0.0017083
0.00467536
0.0103197
0.0212518
0.0411139
0.0706105
0.105584
0.137558
0.160203
0.1737
0.181293
0.184964
0.186792
0.182559
0.191165
4.02973e-05
4.0262e-05
4.02352e-05
4.01974e-05
4.01658e-05
4.01316e-05
4.0098e-05
4.00679e-05
4.00857e-05
4.01226e-05
4.01663e-05
4.02129e-05
4.02676e-05
4.0328e-05
4.03955e-05
4.04696e-05
4.0553e-05
4.06478e-05
4.07606e-05
4.08969e-05
4.10703e-05
4.12918e-05
4.15983e-05
4.19277e-05
4.23311e-05
4.18438e-05
4.18602e-05
3.07619e-05
0.000123753
0.000868522
0.00322271
0.00791204
0.0147857
0.0231
0.0319028
0.0403751
0.0477656
0.0543805
0.0639932
4.0019e-05
4.00175e-05
4.00186e-05
4.00207e-05
4.00234e-05
4.00289e-05
4.00384e-05
4.00512e-05
4.007e-05
4.00952e-05
4.01282e-05
4.01712e-05
4.02268e-05
4.02975e-05
4.03858e-05
4.05041e-05
4.03839e-05
4.00326e-05
3.70214e-05
2.99897e-05
4.66212e-06
2.17607e-05
1.93417e-05
6.73431e-05
0.000356942
0.000993356
0.00231198
0.00225973
0.00354284
0.00810268
0.0225917
0.0494779
0.0873723
0.127434
0.160425
0.183998
0.201331
0.21036
0.225945
4.00164e-05
4.00193e-05
4.00205e-05
4.00241e-05
4.00317e-05
4.00382e-05
4.0043e-05
4.00489e-05
4.00476e-05
4.00445e-05
4.00393e-05
4.00338e-05
4.00292e-05
4.00248e-05
4.00205e-05
4.00158e-05
4.00106e-05
4.00044e-05
3.99983e-05
3.99923e-05
3.99858e-05
3.99787e-05
3.99697e-05
3.99618e-05
3.99527e-05
3.99645e-05
3.99419e-05
4.01209e-05
3.96956e-05
4.06241e-05
3.55367e-05
3.57921e-05
0.000253338
0.00112066
0.00322374
0.00721551
0.0135476
0.0224029
0.0399278
4.00633e-05
4.00642e-05
4.00649e-05
4.0066e-05
4.00684e-05
4.00715e-05
4.00759e-05
4.0082e-05
4.00898e-05
4.01001e-05
4.01135e-05
4.0131e-05
4.01537e-05
4.01829e-05
4.02222e-05
4.02681e-05
4.03331e-05
4.03898e-05
4.0595e-05
4.09723e-05
3.64596e-05
2.74785e-05
3.1745e-07
5.14967e-06
5.79035e-07
0
0
0.000491029
0.000781225
2.0408e-05
0.000328171
0.00358351
0.0162863
0.0443567
0.0874909
0.135079
0.177335
0.210038
0.240076
4.00599e-05
4.00566e-05
4.00545e-05
4.00504e-05
4.00506e-05
4.00504e-05
4.00484e-05
4.00479e-05
4.00497e-05
4.00526e-05
4.00551e-05
4.00585e-05
4.00622e-05
4.00659e-05
4.007e-05
4.00744e-05
4.00794e-05
4.00848e-05
4.00909e-05
4.00974e-05
4.01045e-05
4.01122e-05
4.01207e-05
4.013e-05
4.01417e-05
4.01515e-05
4.01812e-05
4.01351e-05
4.04476e-05
3.91668e-05
4.51056e-05
1.85867e-05
6.73759e-05
6.79792e-08
0.000755664
0.00171968
0.000791249
0.00178359
0.0140536
4.00515e-05
4.00516e-05
4.00529e-05
4.00543e-05
4.00554e-05
4.00571e-05
4.00594e-05
4.0062e-05
4.00653e-05
4.00697e-05
4.00752e-05
4.00825e-05
4.0092e-05
4.01046e-05
4.01213e-05
4.01431e-05
4.01732e-05
4.02042e-05
4.02728e-05
4.04354e-05
4.0918e-05
4.04391e-05
3.51108e-05
2.64761e-05
2.93673e-06
6.43019e-06
5.1795e-06
1.4495e-06
0
4.52342e-06
7.36361e-05
0.000813254
0.00382983
0.00375776
0.0197938
0.0579602
0.115286
0.177419
0.231801
4.00491e-05
4.00482e-05
4.0047e-05
4.00443e-05
4.00438e-05
4.00446e-05
4.00442e-05
4.00457e-05
4.00484e-05
4.00508e-05
4.00531e-05
4.00552e-05
4.00573e-05
4.00591e-05
4.00611e-05
4.00631e-05
4.00652e-05
4.00675e-05
4.007e-05
4.00725e-05
4.0075e-05
4.00775e-05
4.008e-05
4.00822e-05
4.0084e-05
4.00857e-05
4.0087e-05
4.00903e-05
4.00918e-05
4.00996e-05
4.01086e-05
4.00345e-05
3.91143e-05
3.28832e-05
9.32516e-06
5.58676e-06
0.000187565
0.000467085
0.00248853
4.00493e-05
4.0049e-05
4.00497e-05
4.00504e-05
4.00509e-05
4.00518e-05
4.00529e-05
4.00537e-05
4.00548e-05
4.00563e-05
4.00583e-05
4.0061e-05
4.00646e-05
4.00692e-05
4.00753e-05
4.00835e-05
4.00944e-05
4.01063e-05
4.01221e-05
4.013e-05
4.0241e-05
4.06558e-05
4.09831e-05
4.05226e-05
3.74898e-05
3.16396e-05
2.5645e-05
7.07054e-06
6.96892e-06
3.8916e-06
0
0
0
0.000865625
0.00480385
0.00903844
0.043883
0.116572
0.198567
4.00477e-05
4.00476e-05
4.00472e-05
4.00451e-05
4.0043e-05
4.00435e-05
4.00434e-05
4.00455e-05
4.00484e-05
4.00508e-05
4.0053e-05
4.00551e-05
4.00571e-05
4.00588e-05
4.00607e-05
4.00627e-05
4.00649e-05
4.00673e-05
4.007e-05
4.00729e-05
4.00762e-05
4.00798e-05
4.00837e-05
4.00881e-05
4.00931e-05
4.00989e-05
4.01057e-05
4.01138e-05
4.01228e-05
4.01354e-05
4.01426e-05
4.01934e-05
4.01759e-05
3.94981e-05
3.86011e-05
2.50311e-05
7.78417e-06
1.86274e-06
0.000106788
4.00456e-05
4.00454e-05
4.00463e-05
4.00474e-05
4.00486e-05
4.00502e-05
4.00521e-05
4.0054e-05
4.00563e-05
4.00587e-05
4.00613e-05
4.00642e-05
4.00674e-05
4.00711e-05
4.00754e-05
4.00807e-05
4.00875e-05
4.00955e-05
4.01038e-05
4.01078e-05
4.01173e-05
4.01465e-05
4.03429e-05
4.06493e-05
4.13648e-05
4.13568e-05
4.09277e-05
3.79168e-05
3.2402e-05
1.86091e-05
8.16385e-06
3.99782e-06
0
0
0
0.00220087
0.00424315
0.0512569
0.144354
4.00447e-05
4.00454e-05
4.00458e-05
4.00449e-05
4.0042e-05
4.00421e-05
4.00426e-05
4.00452e-05
4.00478e-05
4.005e-05
4.00521e-05
4.0054e-05
4.00558e-05
4.00573e-05
4.0059e-05
4.00606e-05
4.00624e-05
4.00643e-05
4.00665e-05
4.00688e-05
4.00713e-05
4.0074e-05
4.00769e-05
4.008e-05
4.00833e-05
4.0087e-05
4.0091e-05
4.00953e-05
4.01e-05
4.01049e-05
4.01105e-05
4.01137e-05
4.01275e-05
4.01017e-05
4.04898e-05
3.91412e-05
3.24168e-05
8.82687e-06
2.54711e-05
4.0043e-05
4.00428e-05
4.0044e-05
4.00452e-05
4.00465e-05
4.00482e-05
4.00499e-05
4.00515e-05
4.00533e-05
4.0055e-05
4.00568e-05
4.00586e-05
4.00603e-05
4.0062e-05
4.00635e-05
4.00646e-05
4.00661e-05
4.00678e-05
4.00699e-05
4.00723e-05
4.00759e-05
4.00775e-05
4.0091e-05
4.01044e-05
4.02911e-05
4.06832e-05
4.11605e-05
4.19816e-05
4.20817e-05
3.99969e-05
3.56587e-05
1.87823e-05
7.70301e-06
1.09123e-07
0
0
0.00118086
0.00904011
0.0843979
4.00425e-05
4.00438e-05
4.00449e-05
4.00449e-05
4.00418e-05
4.00415e-05
4.00425e-05
4.00448e-05
4.00471e-05
4.00491e-05
4.0051e-05
4.00528e-05
4.00545e-05
4.0056e-05
4.00575e-05
4.00589e-05
4.00605e-05
4.00622e-05
4.00641e-05
4.00661e-05
4.00684e-05
4.0071e-05
4.00738e-05
4.00769e-05
4.00804e-05
4.00844e-05
4.00891e-05
4.00944e-05
4.01005e-05
4.01074e-05
4.01155e-05
4.01243e-05
4.01361e-05
4.01391e-05
4.02107e-05
4.03502e-05
4.11441e-05
3.63747e-05
5.38311e-06
4.00411e-05
4.00412e-05
4.00426e-05
4.00441e-05
4.00456e-05
4.00473e-05
4.0049e-05
4.00507e-05
4.00525e-05
4.00543e-05
4.00562e-05
4.00582e-05
4.00604e-05
4.00627e-05
4.00652e-05
4.0068e-05
4.00711e-05
4.00746e-05
4.0078e-05
4.00811e-05
4.00833e-05
4.00859e-05
4.00882e-05
4.00776e-05
4.00538e-05
4.00855e-05
4.01976e-05
4.05499e-05
4.11552e-05
4.19332e-05
4.26311e-05
3.98417e-05
3.32186e-05
5.04651e-07
2.10424e-06
0
0
0.00293697
0.0407446
4.00409e-05
4.00425e-05
4.00439e-05
4.00448e-05
4.00417e-05
4.00411e-05
4.00422e-05
4.00443e-05
4.00464e-05
4.00482e-05
4.005e-05
4.00516e-05
4.00531e-05
4.00545e-05
4.00559e-05
4.00572e-05
4.00586e-05
4.006e-05
4.00617e-05
4.00634e-05
4.00654e-05
4.00677e-05
4.00701e-05
4.00729e-05
4.00759e-05
4.00794e-05
4.00833e-05
4.00878e-05
4.00928e-05
4.00983e-05
4.01044e-05
4.01116e-05
4.01176e-05
4.01347e-05
4.01111e-05
4.03026e-05
3.96503e-05
4.4602e-05
2.07644e-05
4.00399e-05
4.00403e-05
4.0042e-05
4.00436e-05
4.00451e-05
4.00467e-05
4.00483e-05
4.00497e-05
4.00512e-05
4.00528e-05
4.00544e-05
4.00561e-05
4.00578e-05
4.00597e-05
4.00616e-05
4.00637e-05
4.00658e-05
4.00679e-05
4.00703e-05
4.00733e-05
4.00768e-05
4.0081e-05
4.00863e-05
4.00915e-05
4.00844e-05
4.00649e-05
4.00447e-05
4.00471e-05
4.01575e-05
4.04677e-05
4.11612e-05
4.20254e-05
4.25085e-05
3.73437e-05
9.62193e-06
2.16251e-06
0
0.000351562
0.016834
4.00397e-05
4.00413e-05
4.0043e-05
4.00444e-05
4.00417e-05
4.00409e-05
4.00419e-05
4.00438e-05
4.00457e-05
4.00473e-05
4.00489e-05
4.00504e-05
4.00518e-05
4.00531e-05
4.00543e-05
4.00555e-05
4.00568e-05
4.00581e-05
4.00595e-05
4.00611e-05
4.00629e-05
4.00649e-05
4.00671e-05
4.00696e-05
4.00724e-05
4.00757e-05
4.00794e-05
4.00837e-05
4.00886e-05
4.00941e-05
4.01003e-05
4.01078e-05
4.01142e-05
4.01302e-05
4.01092e-05
4.02548e-05
3.96649e-05
4.20981e-05
3.63769e-05
4.00392e-05
4.004e-05
4.00418e-05
4.00434e-05
4.00449e-05
4.00464e-05
4.00478e-05
4.0049e-05
4.00504e-05
4.00517e-05
4.00531e-05
4.00546e-05
4.00562e-05
4.00579e-05
4.00598e-05
4.00619e-05
4.00642e-05
4.00666e-05
4.00693e-05
4.00721e-05
4.00753e-05
4.00787e-05
4.00828e-05
4.00886e-05
4.00943e-05
4.00949e-05
4.00879e-05
4.00678e-05
4.00426e-05
4.00444e-05
4.01494e-05
4.05617e-05
4.12526e-05
4.3275e-05
3.97807e-05
8.71366e-06
2.27938e-07
0.000128904
0.00588602
4.00388e-05
4.00403e-05
4.00421e-05
4.00439e-05
4.00415e-05
4.00407e-05
4.00416e-05
4.00433e-05
4.00449e-05
4.00464e-05
4.00479e-05
4.00493e-05
4.00505e-05
4.00517e-05
4.00529e-05
4.0054e-05
4.00551e-05
4.00563e-05
4.00576e-05
4.00589e-05
4.00605e-05
4.00622e-05
4.00642e-05
4.00664e-05
4.00689e-05
4.00718e-05
4.00752e-05
4.00791e-05
4.00835e-05
4.00884e-05
4.0094e-05
4.01005e-05
4.01072e-05
4.01174e-05
4.01184e-05
4.01632e-05
4.0053e-05
4.03641e-05
4.02609e-05
4.00388e-05
4.00399e-05
4.00419e-05
4.00434e-05
4.00448e-05
4.00462e-05
4.00474e-05
4.00484e-05
4.00495e-05
4.00506e-05
4.00517e-05
4.0053e-05
4.00544e-05
4.00559e-05
4.00576e-05
4.00594e-05
4.00614e-05
4.00635e-05
4.00658e-05
4.00684e-05
4.00715e-05
4.00749e-05
4.00788e-05
4.00835e-05
4.00892e-05
4.00956e-05
4.01011e-05
4.01033e-05
4.00956e-05
4.00783e-05
4.00481e-05
4.00752e-05
4.01491e-05
4.08378e-05
4.37605e-05
3.81771e-05
6.51511e-06
3.7959e-05
0.00165323
4.00381e-05
4.00394e-05
4.00413e-05
4.00434e-05
4.00413e-05
4.00405e-05
4.00413e-05
4.00428e-05
4.00442e-05
4.00455e-05
4.00469e-05
4.00481e-05
4.00493e-05
4.00504e-05
4.00515e-05
4.00525e-05
4.00535e-05
4.00546e-05
4.00557e-05
4.00569e-05
4.00582e-05
4.00597e-05
4.00615e-05
4.00635e-05
4.00657e-05
4.00684e-05
4.00715e-05
4.0075e-05
4.00791e-05
4.00837e-05
4.0089e-05
4.0095e-05
4.01018e-05
4.01094e-05
4.01191e-05
4.01247e-05
4.01609e-05
4.00514e-05
4.04613e-05
4.00385e-05
4.00399e-05
4.00419e-05
4.00435e-05
4.00447e-05
4.00459e-05
4.00469e-05
4.00478e-05
4.00487e-05
4.00496e-05
4.00505e-05
4.00516e-05
4.00529e-05
4.00542e-05
4.00558e-05
4.00574e-05
4.00593e-05
4.00613e-05
4.00635e-05
4.0066e-05
4.00687e-05
4.00719e-05
4.00755e-05
4.00796e-05
4.00842e-05
4.00898e-05
4.00962e-05
4.01037e-05
4.01104e-05
4.01143e-05
4.01081e-05
4.00941e-05
4.00556e-05
3.99832e-05
4.05772e-05
4.54973e-05
2.50903e-05
6.93293e-06
0.000260611
4.00376e-05
4.00388e-05
4.00407e-05
4.00429e-05
4.00411e-05
4.00403e-05
4.00409e-05
4.00422e-05
4.00435e-05
4.00447e-05
4.00459e-05
4.00471e-05
4.00482e-05
4.00492e-05
4.00501e-05
4.0051e-05
4.0052e-05
4.00529e-05
4.00539e-05
4.0055e-05
4.00562e-05
4.00575e-05
4.0059e-05
4.00608e-05
4.00628e-05
4.00652e-05
4.0068e-05
4.00712e-05
4.00749e-05
4.00792e-05
4.0084e-05
4.00895e-05
4.00958e-05
4.01027e-05
4.01122e-05
4.01167e-05
4.01473e-05
4.00971e-05
4.0244e-05
4.00385e-05
4.004e-05
4.00421e-05
4.00435e-05
4.00446e-05
4.00456e-05
4.00464e-05
4.00471e-05
4.00479e-05
4.00487e-05
4.00495e-05
4.00505e-05
4.00515e-05
4.00527e-05
4.00541e-05
4.00556e-05
4.00573e-05
4.00591e-05
4.00611e-05
4.00634e-05
4.00659e-05
4.00689e-05
4.00722e-05
4.0076e-05
4.00803e-05
4.0085e-05
4.00905e-05
4.00971e-05
4.01049e-05
4.01141e-05
4.01234e-05
4.0132e-05
4.01228e-05
4.01119e-05
3.96095e-05
4.20575e-05
4.32333e-05
1.19305e-06
6.03445e-05
4.00375e-05
4.00386e-05
4.00403e-05
4.00426e-05
4.00409e-05
4.00402e-05
4.00406e-05
4.00418e-05
4.00429e-05
4.00439e-05
4.0045e-05
4.00461e-05
4.0047e-05
4.0048e-05
4.00488e-05
4.00497e-05
4.00505e-05
4.00514e-05
4.00523e-05
4.00532e-05
4.00543e-05
4.00554e-05
4.00568e-05
4.00583e-05
4.00602e-05
4.00623e-05
4.00648e-05
4.00677e-05
4.00711e-05
4.0075e-05
4.00794e-05
4.00845e-05
4.00903e-05
4.00969e-05
4.01049e-05
4.01126e-05
4.01272e-05
4.01306e-05
4.01593e-05
4.00388e-05
4.00404e-05
4.00423e-05
4.00435e-05
4.00445e-05
4.00453e-05
4.0046e-05
4.00466e-05
4.00472e-05
4.00478e-05
4.00486e-05
4.00494e-05
4.00504e-05
4.00514e-05
4.00527e-05
4.0054e-05
4.00556e-05
4.00573e-05
4.00591e-05
4.00612e-05
4.00635e-05
4.00662e-05
4.00693e-05
4.00728e-05
4.00768e-05
4.00811e-05
4.0086e-05
4.00917e-05
4.00984e-05
4.01066e-05
4.01165e-05
4.01301e-05
4.01425e-05
4.01661e-05
4.00944e-05
3.90798e-05
4.82144e-05
6.99938e-06
0
4.00378e-05
4.00387e-05
4.00401e-05
4.00423e-05
4.00408e-05
4.00401e-05
4.00404e-05
4.00413e-05
4.00423e-05
4.00432e-05
4.00442e-05
4.00452e-05
4.0046e-05
4.00469e-05
4.00477e-05
4.00484e-05
4.00492e-05
4.005e-05
4.00508e-05
4.00516e-05
4.00525e-05
4.00535e-05
4.00547e-05
4.00561e-05
4.00577e-05
4.00596e-05
4.00619e-05
4.00645e-05
4.00675e-05
4.0071e-05
4.00751e-05
4.00797e-05
4.0085e-05
4.00912e-05
4.00983e-05
4.01067e-05
4.01163e-05
4.0131e-05
4.0142e-05
4.00393e-05
4.00408e-05
4.00426e-05
4.00437e-05
4.00444e-05
4.00451e-05
4.00456e-05
4.00461e-05
4.00466e-05
4.00472e-05
4.00478e-05
4.00485e-05
4.00494e-05
4.00504e-05
4.00515e-05
4.00527e-05
4.00541e-05
4.00556e-05
4.00573e-05
4.00592e-05
4.00614e-05
4.00638e-05
4.00666e-05
4.00699e-05
4.00735e-05
4.00776e-05
4.00821e-05
4.00873e-05
4.00934e-05
4.01005e-05
4.01092e-05
4.01184e-05
4.0142e-05
4.01117e-05
4.04418e-05
3.86512e-05
4.5673e-05
2.5879e-05
3.02986e-06
4.00383e-05
4.0039e-05
4.00401e-05
4.00421e-05
4.00408e-05
4.004e-05
4.00402e-05
4.0041e-05
4.00418e-05
4.00426e-05
4.00435e-05
4.00443e-05
4.00451e-05
4.00458e-05
4.00466e-05
4.00473e-05
4.0048e-05
4.00487e-05
4.00494e-05
4.00501e-05
4.00509e-05
4.00518e-05
4.00528e-05
4.0054e-05
4.00554e-05
4.00571e-05
4.00591e-05
4.00615e-05
4.00642e-05
4.00674e-05
4.00711e-05
4.00753e-05
4.00802e-05
4.00858e-05
4.00924e-05
4.01002e-05
4.01091e-05
4.01226e-05
4.01359e-05
4.004e-05
4.00414e-05
4.0043e-05
4.00439e-05
4.00444e-05
4.0045e-05
4.00453e-05
4.00457e-05
4.00461e-05
4.00466e-05
4.00471e-05
4.00478e-05
4.00485e-05
4.00494e-05
4.00504e-05
4.00515e-05
4.00528e-05
4.00542e-05
4.00558e-05
4.00575e-05
4.00594e-05
4.00617e-05
4.00642e-05
4.00672e-05
4.00705e-05
4.00742e-05
4.00784e-05
4.00832e-05
4.00889e-05
4.00953e-05
4.01036e-05
4.01099e-05
4.01352e-05
4.00869e-05
4.03943e-05
3.93909e-05
4.1894e-05
4.01228e-05
1.06188e-05
4.00391e-05
4.00395e-05
4.00402e-05
4.0042e-05
4.00408e-05
4.004e-05
4.00401e-05
4.00407e-05
4.00414e-05
4.00421e-05
4.00428e-05
4.00436e-05
4.00443e-05
4.00449e-05
4.00456e-05
4.00462e-05
4.00468e-05
4.00475e-05
4.00481e-05
4.00488e-05
4.00495e-05
4.00502e-05
4.00511e-05
4.00522e-05
4.00534e-05
4.00549e-05
4.00567e-05
4.00588e-05
4.00612e-05
4.00641e-05
4.00674e-05
4.00712e-05
4.00757e-05
4.00808e-05
4.00869e-05
4.0094e-05
4.01025e-05
4.01141e-05
4.01287e-05
4.00408e-05
4.00421e-05
4.00435e-05
4.00441e-05
4.00445e-05
4.00449e-05
4.00451e-05
4.00454e-05
4.00457e-05
4.00461e-05
4.00466e-05
4.00472e-05
4.00478e-05
4.00486e-05
4.00495e-05
4.00505e-05
4.00517e-05
4.0053e-05
4.00544e-05
4.0056e-05
4.00578e-05
4.00598e-05
4.00621e-05
4.00648e-05
4.00678e-05
4.00712e-05
4.0075e-05
4.00795e-05
4.00846e-05
4.00906e-05
4.00983e-05
4.01045e-05
4.01238e-05
4.01015e-05
4.02292e-05
4.00459e-05
3.98537e-05
4.38558e-05
2.62914e-05
4.004e-05
4.00402e-05
4.00405e-05
4.0042e-05
4.00409e-05
4.00401e-05
4.004e-05
4.00405e-05
4.00411e-05
4.00417e-05
4.00423e-05
4.00429e-05
4.00435e-05
4.00441e-05
4.00447e-05
4.00452e-05
4.00458e-05
4.00464e-05
4.00469e-05
4.00475e-05
4.00481e-05
4.00488e-05
4.00495e-05
4.00504e-05
4.00515e-05
4.00528e-05
4.00544e-05
4.00563e-05
4.00584e-05
4.0061e-05
4.0064e-05
4.00674e-05
4.00714e-05
4.00761e-05
4.00817e-05
4.00882e-05
4.00962e-05
4.01066e-05
4.01208e-05
4.00416e-05
4.00427e-05
4.00438e-05
4.00442e-05
4.00445e-05
4.00448e-05
4.0045e-05
4.00452e-05
4.00454e-05
4.00457e-05
4.00461e-05
4.00466e-05
4.00472e-05
4.00479e-05
4.00487e-05
4.00496e-05
4.00507e-05
4.00518e-05
4.00531e-05
4.00546e-05
4.00562e-05
4.00581e-05
4.00602e-05
4.00627e-05
4.00654e-05
4.00685e-05
4.0072e-05
4.0076e-05
4.00808e-05
4.00862e-05
4.00931e-05
4.01001e-05
4.01122e-05
4.0118e-05
4.01252e-05
4.02895e-05
3.946e-05
4.28404e-05
3.60457e-05
4.0041e-05
4.0041e-05
4.00411e-05
4.00421e-05
4.0041e-05
4.00401e-05
4.004e-05
4.00404e-05
4.00409e-05
4.00413e-05
4.00419e-05
4.00424e-05
4.00429e-05
4.00434e-05
4.00439e-05
4.00444e-05
4.00449e-05
4.00454e-05
4.00459e-05
4.00464e-05
4.00469e-05
4.00475e-05
4.00481e-05
4.00489e-05
4.00498e-05
4.0051e-05
4.00523e-05
4.0054e-05
4.00559e-05
4.00582e-05
4.00609e-05
4.0064e-05
4.00676e-05
4.00718e-05
4.00769e-05
4.00828e-05
4.00902e-05
4.00998e-05
4.01131e-05
4.00424e-05
4.00433e-05
4.00442e-05
4.00444e-05
4.00446e-05
4.00447e-05
4.00448e-05
4.0045e-05
4.00452e-05
4.00454e-05
4.00457e-05
4.00462e-05
4.00467e-05
4.00473e-05
4.0048e-05
4.00488e-05
4.00497e-05
4.00508e-05
4.0052e-05
4.00533e-05
4.00548e-05
4.00565e-05
4.00585e-05
4.00607e-05
4.00632e-05
4.0066e-05
4.00692e-05
4.00729e-05
4.00772e-05
4.00822e-05
4.00883e-05
4.00956e-05
4.01033e-05
4.01207e-05
4.0096e-05
4.02777e-05
3.972e-05
4.12405e-05
3.98638e-05
4.0042e-05
4.00421e-05
4.00418e-05
4.00423e-05
4.00412e-05
4.00403e-05
4.00401e-05
4.00403e-05
4.00407e-05
4.00411e-05
4.00415e-05
4.0042e-05
4.00424e-05
4.00428e-05
4.00432e-05
4.00437e-05
4.00441e-05
4.00445e-05
4.00449e-05
4.00453e-05
4.00458e-05
4.00463e-05
4.00468e-05
4.00475e-05
4.00483e-05
4.00493e-05
4.00505e-05
4.00519e-05
4.00536e-05
4.00557e-05
4.0058e-05
4.00608e-05
4.00641e-05
4.00679e-05
4.00725e-05
4.00779e-05
4.00847e-05
4.00934e-05
4.01058e-05
4.00432e-05
4.00438e-05
4.00444e-05
4.00445e-05
4.00446e-05
4.00447e-05
4.00448e-05
4.00449e-05
4.0045e-05
4.00452e-05
4.00454e-05
4.00458e-05
4.00462e-05
4.00467e-05
4.00473e-05
4.00481e-05
4.00489e-05
4.00499e-05
4.00509e-05
4.00522e-05
4.00535e-05
4.00551e-05
4.00569e-05
4.00589e-05
4.00612e-05
4.00637e-05
4.00667e-05
4.007e-05
4.00739e-05
4.00786e-05
4.0084e-05
4.00909e-05
4.00973e-05
4.01138e-05
4.00995e-05
4.02003e-05
3.99986e-05
4.03607e-05
4.06571e-05
4.00429e-05
4.00431e-05
4.00426e-05
4.00425e-05
4.00414e-05
4.00405e-05
4.00402e-05
4.00404e-05
4.00406e-05
4.00409e-05
4.00413e-05
4.00416e-05
4.0042e-05
4.00423e-05
4.00427e-05
4.0043e-05
4.00434e-05
4.00437e-05
4.00441e-05
4.00444e-05
4.00448e-05
4.00452e-05
4.00457e-05
4.00462e-05
4.00469e-05
4.00478e-05
4.00488e-05
4.00501e-05
4.00515e-05
4.00533e-05
4.00554e-05
4.00579e-05
4.00608e-05
4.00642e-05
4.00684e-05
4.00733e-05
4.00795e-05
4.00874e-05
4.0099e-05
4.00438e-05
4.00442e-05
4.00447e-05
4.00447e-05
4.00447e-05
4.00448e-05
4.00448e-05
4.00448e-05
4.00448e-05
4.0045e-05
4.00452e-05
4.00454e-05
4.00458e-05
4.00462e-05
4.00468e-05
4.00474e-05
4.00482e-05
4.0049e-05
4.005e-05
4.00511e-05
4.00523e-05
4.00538e-05
4.00554e-05
4.00572e-05
4.00593e-05
4.00616e-05
4.00643e-05
4.00674e-05
4.0071e-05
4.00752e-05
4.00801e-05
4.00864e-05
4.00927e-05
4.01049e-05
4.01057e-05
4.01435e-05
4.01295e-05
4.00936e-05
4.05102e-05
4.00437e-05
4.0044e-05
4.00434e-05
4.00428e-05
4.00416e-05
4.00407e-05
4.00404e-05
4.00405e-05
4.00407e-05
4.00409e-05
4.00411e-05
4.00414e-05
4.00416e-05
4.00419e-05
4.00422e-05
4.00424e-05
4.00427e-05
4.0043e-05
4.00433e-05
4.00436e-05
4.00439e-05
4.00443e-05
4.00446e-05
4.00451e-05
4.00456e-05
4.00464e-05
4.00473e-05
4.00484e-05
4.00497e-05
4.00512e-05
4.0053e-05
4.00552e-05
4.00578e-05
4.00609e-05
4.00646e-05
4.00691e-05
4.00747e-05
4.00819e-05
4.00925e-05
4.00443e-05
4.00446e-05
4.0045e-05
4.0045e-05
4.00449e-05
4.00449e-05
4.00448e-05
4.00448e-05
4.00448e-05
4.00448e-05
4.0045e-05
4.00452e-05
4.00455e-05
4.00459e-05
4.00464e-05
4.0047e-05
4.00477e-05
4.00484e-05
4.00493e-05
4.00503e-05
4.00514e-05
4.00526e-05
4.00541e-05
4.00557e-05
4.00576e-05
4.00597e-05
4.00621e-05
4.00649e-05
4.00682e-05
4.0072e-05
4.00766e-05
4.00821e-05
4.00885e-05
4.00973e-05
4.01059e-05
4.01175e-05
4.01546e-05
4.0082e-05
4.02894e-05
4.00444e-05
4.00447e-05
4.00441e-05
4.00431e-05
4.0042e-05
4.00411e-05
4.00407e-05
4.00407e-05
4.00408e-05
4.00409e-05
4.0041e-05
4.00412e-05
4.00414e-05
4.00415e-05
4.00417e-05
4.00419e-05
4.00422e-05
4.00424e-05
4.00426e-05
4.00429e-05
4.00431e-05
4.00434e-05
4.00437e-05
4.0044e-05
4.00445e-05
4.00451e-05
4.00459e-05
4.00468e-05
4.00479e-05
4.00493e-05
4.00509e-05
4.00528e-05
4.00551e-05
4.00578e-05
4.00611e-05
4.00652e-05
4.00703e-05
4.00768e-05
4.00864e-05
4.00448e-05
4.0045e-05
4.00454e-05
4.00452e-05
4.00451e-05
4.0045e-05
4.00449e-05
4.00448e-05
4.00448e-05
4.00449e-05
4.0045e-05
4.00452e-05
4.00455e-05
4.00458e-05
4.00463e-05
4.00467e-05
4.00473e-05
4.0048e-05
4.00488e-05
4.00496e-05
4.00506e-05
4.00517e-05
4.0053e-05
4.00544e-05
4.00561e-05
4.0058e-05
4.00601e-05
4.00627e-05
4.00656e-05
4.00691e-05
4.00733e-05
4.00782e-05
4.00842e-05
4.00915e-05
4.01016e-05
4.0108e-05
4.01409e-05
4.01162e-05
4.01804e-05
4.00451e-05
4.00454e-05
4.00447e-05
4.00435e-05
4.00423e-05
4.00414e-05
4.0041e-05
4.00409e-05
4.00409e-05
4.00409e-05
4.00409e-05
4.0041e-05
4.00411e-05
4.00412e-05
4.00413e-05
4.00415e-05
4.00416e-05
4.00418e-05
4.0042e-05
4.00422e-05
4.00424e-05
4.00425e-05
4.00428e-05
4.0043e-05
4.00434e-05
4.00439e-05
4.00446e-05
4.00454e-05
4.00463e-05
4.00475e-05
4.00489e-05
4.00506e-05
4.00526e-05
4.0055e-05
4.0058e-05
4.00616e-05
4.00662e-05
4.00721e-05
4.00807e-05
4.00453e-05
4.00455e-05
4.00458e-05
4.00455e-05
4.00453e-05
4.00452e-05
4.00451e-05
4.0045e-05
4.0045e-05
4.00451e-05
4.00452e-05
4.00454e-05
4.00456e-05
4.00459e-05
4.00463e-05
4.00467e-05
4.00472e-05
4.00478e-05
4.00485e-05
4.00492e-05
4.00501e-05
4.0051e-05
4.00521e-05
4.00534e-05
4.00548e-05
4.00565e-05
4.00584e-05
4.00607e-05
4.00633e-05
4.00664e-05
4.00702e-05
4.00747e-05
4.00801e-05
4.00866e-05
4.00957e-05
4.01034e-05
4.01236e-05
4.01327e-05
4.01482e-05
4.00457e-05
4.00461e-05
4.00454e-05
4.00439e-05
4.00428e-05
4.00419e-05
4.00414e-05
4.00412e-05
4.0041e-05
4.00409e-05
4.00409e-05
4.00409e-05
4.00409e-05
4.00409e-05
4.0041e-05
4.00411e-05
4.00412e-05
4.00413e-05
4.00414e-05
4.00415e-05
4.00416e-05
4.00418e-05
4.00419e-05
4.00421e-05
4.00424e-05
4.00429e-05
4.00434e-05
4.00441e-05
4.00449e-05
4.00459e-05
4.00471e-05
4.00486e-05
4.00503e-05
4.00524e-05
4.00551e-05
4.00583e-05
4.00624e-05
4.00677e-05
4.00754e-05
4.00459e-05
4.0046e-05
4.00461e-05
4.00458e-05
4.00456e-05
4.00455e-05
4.00454e-05
4.00454e-05
4.00454e-05
4.00455e-05
4.00456e-05
4.00457e-05
4.00459e-05
4.00462e-05
4.00465e-05
4.00468e-05
4.00473e-05
4.00478e-05
4.00483e-05
4.0049e-05
4.00497e-05
4.00505e-05
4.00515e-05
4.00526e-05
4.00538e-05
4.00553e-05
4.00569e-05
4.00589e-05
4.00613e-05
4.00641e-05
4.00674e-05
4.00714e-05
4.00763e-05
4.00822e-05
4.009e-05
4.00988e-05
4.01114e-05
4.01309e-05
4.01412e-05
4.00463e-05
4.00466e-05
4.00459e-05
4.00443e-05
4.00432e-05
4.00423e-05
4.00418e-05
4.00414e-05
4.00412e-05
4.00409e-05
4.00408e-05
4.00407e-05
4.00406e-05
4.00406e-05
4.00406e-05
4.00407e-05
4.00407e-05
4.00408e-05
4.00408e-05
4.00409e-05
4.0041e-05
4.00411e-05
4.00412e-05
4.00413e-05
4.00415e-05
4.00419e-05
4.00423e-05
4.00428e-05
4.00435e-05
4.00444e-05
4.00454e-05
4.00467e-05
4.00482e-05
4.00501e-05
4.00524e-05
4.00552e-05
4.00589e-05
4.00637e-05
4.00705e-05
4.00464e-05
4.00464e-05
4.00465e-05
4.00461e-05
4.00459e-05
4.00459e-05
4.00458e-05
4.00458e-05
4.00459e-05
4.0046e-05
4.00461e-05
4.00462e-05
4.00463e-05
4.00465e-05
4.00468e-05
4.00471e-05
4.00475e-05
4.00479e-05
4.00483e-05
4.00489e-05
4.00495e-05
4.00502e-05
4.0051e-05
4.0052e-05
4.0053e-05
4.00543e-05
4.00558e-05
4.00575e-05
4.00596e-05
4.0062e-05
4.00649e-05
4.00685e-05
4.00729e-05
4.00782e-05
4.00849e-05
4.00936e-05
4.01034e-05
4.01223e-05
4.0136e-05
4.00469e-05
4.00472e-05
4.00465e-05
4.00448e-05
4.00437e-05
4.00428e-05
4.00421e-05
4.00417e-05
4.00413e-05
4.00409e-05
4.00407e-05
4.00406e-05
4.00404e-05
4.00404e-05
4.00403e-05
4.00403e-05
4.00403e-05
4.00403e-05
4.00403e-05
4.00403e-05
4.00404e-05
4.00404e-05
4.00404e-05
4.00405e-05
4.00407e-05
4.00409e-05
4.00413e-05
4.00417e-05
4.00423e-05
4.0043e-05
4.00439e-05
4.0045e-05
4.00463e-05
4.00479e-05
4.00499e-05
4.00525e-05
4.00557e-05
4.006e-05
4.0066e-05
4.00469e-05
4.00469e-05
4.00468e-05
4.00465e-05
4.00464e-05
4.00464e-05
4.00464e-05
4.00464e-05
4.00465e-05
4.00465e-05
4.00466e-05
4.00467e-05
4.00468e-05
4.0047e-05
4.00472e-05
4.00474e-05
4.00477e-05
4.00481e-05
4.00485e-05
4.00489e-05
4.00495e-05
4.00501e-05
4.00508e-05
4.00515e-05
4.00525e-05
4.00535e-05
4.00548e-05
4.00563e-05
4.00581e-05
4.00602e-05
4.00628e-05
4.0066e-05
4.00698e-05
4.00746e-05
4.00804e-05
4.00884e-05
4.00971e-05
4.0113e-05
4.01281e-05
4.00474e-05
4.00477e-05
4.00469e-05
4.00452e-05
4.00442e-05
4.00434e-05
4.00425e-05
4.00419e-05
4.00414e-05
4.00409e-05
4.00407e-05
4.00404e-05
4.00403e-05
4.00401e-05
4.004e-05
4.004e-05
4.00399e-05
4.00399e-05
4.00398e-05
4.00398e-05
4.00398e-05
4.00398e-05
4.00398e-05
4.00398e-05
4.00399e-05
4.00401e-05
4.00403e-05
4.00407e-05
4.00411e-05
4.00417e-05
4.00425e-05
4.00434e-05
4.00445e-05
4.00459e-05
4.00477e-05
4.00499e-05
4.00527e-05
4.00565e-05
4.00618e-05
4.00474e-05
4.00473e-05
4.00472e-05
4.0047e-05
4.0047e-05
4.00471e-05
4.00471e-05
4.00471e-05
4.00472e-05
4.00472e-05
4.00473e-05
4.00473e-05
4.00474e-05
4.00476e-05
4.00477e-05
4.00479e-05
4.00481e-05
4.00484e-05
4.00487e-05
4.00491e-05
4.00495e-05
4.005e-05
4.00506e-05
4.00512e-05
4.0052e-05
4.00529e-05
4.0054e-05
4.00553e-05
4.00569e-05
4.00588e-05
4.0061e-05
4.00638e-05
4.00671e-05
4.00713e-05
4.00765e-05
4.00835e-05
4.00915e-05
4.01051e-05
4.0119e-05
4.00479e-05
4.00481e-05
4.00474e-05
4.00457e-05
4.00447e-05
4.00438e-05
4.00428e-05
4.00421e-05
4.00415e-05
4.0041e-05
4.00406e-05
4.00403e-05
4.00401e-05
4.00399e-05
4.00398e-05
4.00397e-05
4.00396e-05
4.00395e-05
4.00394e-05
4.00394e-05
4.00393e-05
4.00392e-05
4.00392e-05
4.00391e-05
4.00392e-05
4.00393e-05
4.00395e-05
4.00397e-05
4.00401e-05
4.00406e-05
4.00412e-05
4.00419e-05
4.00429e-05
4.00441e-05
4.00456e-05
4.00475e-05
4.005e-05
4.00534e-05
4.00579e-05
4.0048e-05
4.00478e-05
4.00476e-05
4.00476e-05
4.00476e-05
4.00477e-05
4.00478e-05
4.00479e-05
4.00479e-05
4.0048e-05
4.0048e-05
4.00481e-05
4.00481e-05
4.00482e-05
4.00483e-05
4.00484e-05
4.00486e-05
4.00488e-05
4.0049e-05
4.00493e-05
4.00497e-05
4.00501e-05
4.00505e-05
4.00511e-05
4.00517e-05
4.00525e-05
4.00534e-05
4.00545e-05
4.00559e-05
4.00575e-05
4.00595e-05
4.00619e-05
4.00648e-05
4.00685e-05
4.0073e-05
4.00792e-05
4.00862e-05
4.00983e-05
4.01102e-05
4.00484e-05
4.00485e-05
4.00477e-05
4.00461e-05
4.00451e-05
4.00442e-05
4.00431e-05
4.00423e-05
4.00416e-05
4.0041e-05
4.00406e-05
4.00402e-05
4.004e-05
4.00397e-05
4.00396e-05
4.00394e-05
4.00393e-05
4.00391e-05
4.0039e-05
4.00389e-05
4.00388e-05
4.00387e-05
4.00386e-05
4.00386e-05
4.00385e-05
4.00386e-05
4.00387e-05
4.00389e-05
4.00391e-05
4.00395e-05
4.004e-05
4.00406e-05
4.00414e-05
4.00424e-05
4.00437e-05
4.00453e-05
4.00475e-05
4.00504e-05
4.00544e-05
4.00485e-05
4.00482e-05
4.0048e-05
4.00482e-05
4.00483e-05
4.00485e-05
4.00486e-05
4.00487e-05
4.00488e-05
4.00488e-05
4.00488e-05
4.00489e-05
4.00489e-05
4.00489e-05
4.0049e-05
4.00491e-05
4.00492e-05
4.00493e-05
4.00495e-05
4.00497e-05
4.005e-05
4.00503e-05
4.00506e-05
4.0051e-05
4.00515e-05
4.00522e-05
4.00529e-05
4.00539e-05
4.0055e-05
4.00564e-05
4.00581e-05
4.00602e-05
4.00628e-05
4.0066e-05
4.007e-05
4.00753e-05
4.00815e-05
4.00923e-05
4.01023e-05
4.00487e-05
4.00488e-05
4.0048e-05
4.00465e-05
4.00454e-05
4.00444e-05
4.00434e-05
4.00424e-05
4.00417e-05
4.0041e-05
4.00406e-05
4.00402e-05
4.00399e-05
4.00396e-05
4.00394e-05
4.00392e-05
4.0039e-05
4.00389e-05
4.00387e-05
4.00386e-05
4.00384e-05
4.00383e-05
4.00382e-05
4.0038e-05
4.00379e-05
4.00379e-05
4.0038e-05
4.00381e-05
4.00383e-05
4.00385e-05