/*--------------------------------*- C++ -*----------------------------------*\
| =========                 |                                                 |
| \\      /  F ield         | OpenFOAM: The Open Source CFD Toolbox           |
|  \\    /   O peration     | Version:  2312                                  |
|   \\  /    A nd           | Website:  www.openfoam.com                      |
|    \\/     M anipulation  |                                                 |
\*---------------------------------------------------------------------------*/
FoamFile
{
    version     2.0;
    format      ascii;
    arch        "LSB;label=32;scalar=64";
    class       volScalarField;
    location    "150";
    object      p;
}
// * * * * * * * * * * * * * * * * * * * * * * * * * * * * * * * * * * * * * //

dimensions      [0 2 -2 0 0 0 0];

internalField   nonuniform List<scalar> 
10720
(
-39.128
-108.792
-190.786
-272.088
-347.815
-425.135
-494.211
-552.734
-603.919
-644.461
-675.92
-699.435
-716.053
-726.8
-731.791
-730.416
-723.511
-710.008
-691.192
-666.754
-639.409
-611.282
-585.794
-557.752
-518.78
-470.281
-420.735
-376.799
-338.515
-302.606
-267.149
-231.913
-196.942
-161.899
-126.405
-89.493
-51.3616
-7.23614
28.4419
30.124
93.1314
159.579
221.133
273.235
311.73
332.808
338.762
334.444
319.419
297.325
273.264
249.335
226.369
205.032
185.055
166.436
148.722
131.641
114.68
97.7856
80.642
63.3468
46.3223
31.4748
19.8498
10.3574
2.71757
-2.89605
-6.53628
-8.45015
-8.78167
-7.61283
-4.94962
-0.782379
5.2515
13.736
27.9829
52.1546
57.819
4.91265
-54.5128
-117.839
-183.125
-250.14
-315.424
-376.905
-433.86
-484.547
-528.62
-566.08
-596.945
-621.166
-638.61
-648.834
-652.552
-649.621
-640.95
-626.8
-609.216
-590.014
-571.029
-547.576
-512.438
-466.606
-418.62
-375.372
-337.357
-301.6
-266.248
-231.092
-196.206
-161.27
-125.895
-89.0951
-51.0572
-6.93131
28.1197
105.323
150.46
195.246
238.121
275.548
304.838
322.821
329.504
326.27
314.033
295.948
275.205
253.537
231.914
211.054
191.126
172.207
154.097
136.588
119.336
102.233
85.0674
67.9247
51.2397
36.5128
24.6808
15.0313
7.13495
0.960598
-3.38726
-5.92375
-6.74971
-5.96981
-3.61603
0.311622
6.16653
14.5164
28.6867
51.8991
70.2545
22.7523
-30.8755
-90.1744
-151.875
-215.351
-279.011
-340.259
-397.529
-449.792
-495.79
-535.072
-567.216
-592.213
-610.379
-622.034
-627.301
-626.16
-619.127
-606.678
-590.244
-571.425
-551.724
-528.477
-496.217
-454.702
-410.532
-369.746
-333.199
-298.503
-264.015
-229.536
-195.126
-160.494
-125.316
-88.6597
-50.7361
-6.70077
28.2043
113.002
154.307
195.152
233.579
266.465
292.139
308.55
315.765
314.388
305.142
290.272
272.039
252.109
231.622
211.392
191.809
173.023
154.975
137.507
120.361
103.393
86.4577
69.6182
53.265
38.5817
26.4812
16.5722
8.48861
2.22023
-2.147
-4.6843
-5.55296
-4.8701
-2.64733
1.14784
6.88645
15.1463
29.1792
51.4954
89.8785
49.9969
4.35686
-45.9322
-98.8716
-154.416
-210.917
-266.64
-320.289
-370.702
-416.759
-457.735
-493.094
-522.635
-546.227
-564.041
-575.632
-580.894
-580.024
-573.44
-562.12
-547.308
-530.078
-508.839
-479.738
-442.346
-401.757
-363.268
-328.085
-294.421
-260.853
-227.16
-193.395
-159.29
-124.516
-88.1546
-50.4348
-6.61716
28.3313
125.533
159.638
193.677
226.299
254.582
277.194
292.495
300.159
300.37
293.742
281.889
266.534
249.071
230.561
211.786
193.205
175.052
157.388
140.144
123.161
106.328
89.5644
72.9422
56.8261
42.1912
29.8962
19.7595
11.4453
4.91
0.214346
-2.7035
-3.94662
-3.59118
-1.63088
1.9701
7.57156
15.732
29.5885
51.0451
94.5974
59.1047
18.2934
-26.978
-74.7609
-125.474
-177.753
-230.024
-281.3
-330.427
-376.266
-418.01
-454.965
-486.606
-512.599
-532.711
-546.571
-554.174
-555.642
-551.437
-542.34
-529.419
-513.516
-493.574
-466.668
-432.221
-394.235
-357.415
-323.217
-290.336
-257.516
-224.513
-191.355
-157.783
-123.472
-87.5191
-50.1287
-6.66451
28.2815
126.398
156.652
186.941
215.987
241.206
261.671
276.142
284.126
285.626
281.18
271.933
259.195
244.074
227.5
210.214
192.708
175.289
158.114
141.202
124.484
107.893
91.3924
75.0654
59.2474
44.7413
32.3281
21.9897
13.4576
6.69254
1.76248
-1.36287
-2.77129
-2.54506
-0.694403
2.81017
8.32263
16.3887
30.0311
50.585
96.981
65.5318
29.1932
-11.0884
-53.6047
-99.0565
-146.178
-193.716
-240.95
-286.829
-330.394
-370.88
-407.54
-439.757
-467.083
-489.14
-505.757
-516.721
-521.981
-521.765
-516.564
-507.126
-494.008
-476.469
-452.336
-421.08
-385.932
-351.081
-318.141
-286.2
-254.175
-221.846
-189.268
-156.213
-122.368
-86.8468
-49.8524
-6.87275
28.0212
125.168
151.892
178.847
204.889
227.628
246.385
260.163
268.34
270.825
268.111
261.041
250.626
237.742
223.165
207.559
191.391
174.995
158.579
142.234
125.96
109.742
93.5854
77.5907
62.0751
47.7216
35.2393
24.7342
16.0165
9.05088
3.90143
0.550317
-1.08909
-1.09337
0.535277
3.84044
9.18083
17.0888
30.4568
50.083
95.8963
67.5108
34.6277
-1.8508
-40.2734
-81.5636
-124.598
-168.283
-212.136
-255.229
-296.732
-335.963
-372.17
-404.696
-433.009
-456.646
-475.21
-488.37
-495.928
-498.035
-495.098
-487.716
-476.329
-460.478
-438.598
-410.178
-377.71
-344.803
-313.129
-282.126
-250.896
-219.238
-187.213
-154.638
-121.244
-86.1805
-49.6552
-7.27085
27.5209
121.364
145.439
169.853
193.547
214.32
231.709
244.878
253.132
256.363
255.011
249.728
241.308
230.44
217.753
203.815
189.044
173.763
158.216
142.54
126.796
111.02
95.2594
79.6328
64.4428
50.2798
37.7874
27.158
18.2787
11.1241
5.75738
2.17551
0.311048
0.099491
1.54694
4.70111
9.91392
17.6946
30.7834
49.5049
93.3631
67.586
37.6674
4.50704
-30.3225
-67.8634
-107.084
-147.031
-187.391
-227.372
-266.259
-303.483
-338.355
-370.233
-398.549
-422.785
-442.456
-457.283
-467.023
-471.653
-471.377
-466.556
-457.447
-443.721
-424.271
-398.675
-368.877
-337.98
-307.675
-277.705
-247.358
-216.452
-185.054
-153.008
-120.084
-85.4887
-49.5013
-7.82005
26.7436
116.527
138.38
160.67
182.41
201.55
217.803
230.413
238.652
242.439
242.149
238.313
231.575
222.483
211.542
199.224
185.879
171.808
157.254
142.383
127.297
112.073
96.7925
81.5938
66.7668
52.8389
40.3967
29.6915
20.6839
13.3661
7.8035
4.00939
1.93193
1.51434
2.76694
5.74347
10.791
18.3978
31.1379
48.9255
89.7782
66.1689
38.7364
8.35573
-23.4515
-57.7886
-93.7218
-130.392
-167.625
-204.731
-241.114
-276.315
-309.713
-340.71
-368.751
-393.29
-413.815
-429.934
-441.333
-447.832
-449.514
-446.627
-439.341
-427.437
-410.137
-387.094
-359.8
-330.878
-301.971
-273.073
-243.639
-213.516
-182.779
-151.301
-118.878
-84.7703
-49.3455
-8.43845
25.7067
111.027
131.045
151.566
171.666
189.428
204.712
216.802
224.966
229.152
229.686
227.015
221.679
214.124
204.753
193.949
181.999
169.161
155.664
141.677
127.329
112.73
97.99
83.2616
68.8289
55.172
42.8298
32.0921
22.9855
15.525
9.78027
5.77975
3.48897
2.86261
3.91955
6.71993
11.6038
19.0335
31.4072
48.2841
85.6513
63.9015
38.6137
10.6434
-18.5441
-50.0748
-83.0807
-116.787
-151.117
-185.466
-219.346
-252.391
-284.051
-313.806
-341.124
-365.459
-386.291
-403.182
-415.805
-423.9
-427.405
-426.426
-421.016
-411.001
-395.831
-375.238
-350.373
-323.435
-295.984
-268.208
-239.727
-210.424
-180.38
-149.501
-117.615
-84.0282
-49.1737
-9.10019
24.4865
105.261
123.715
142.726
161.42
177.997
192.429
204.034
212.078
216.539
217.709
215.975
211.799
205.555
197.572
188.158
177.536
165.923
153.515
140.474
126.94
113.04
98.9055
84.7013
70.7047
57.3626
45.1758
34.4571
25.2896
17.7151
11.8107
7.61963
5.12623
4.29635
5.15574
7.7715
12.4745
19.7001
31.6584
47.6123
81.2312
61.0874
37.6587
11.7793
-15.1301
-44.2075
-74.637
-105.713
-137.417
-169.225
-200.74
-231.68
-261.563
-289.939
-316.326
-340.207
-361.062
-378.438
-391.948
-401.283
-406.246
-406.848
-403.076
-394.783
-381.579
-363.255
-340.689
-315.701
-289.732
-263.118
-235.625
-207.175
-177.86
-147.612
-116.297
-83.2677
-48.9947
-9.82288
23.1334
99.4249
116.533
134.237
151.71
167.255
180.926
192.069
199.964
204.605
206.263
205.277
202.057
196.927
190.154
181.992
172.611
162.179
150.859
138.796
126.124
112.978
99.5029
85.8675
72.3436
59.3555
47.3729
36.7203
27.5279
19.8662
13.822
9.45362
6.7639
5.73272
6.39366
8.82144
13.336
20.3432
31.8598
46.904
76.701
57.9656
36.1705
12.13
-12.7803
-39.6907
-67.8295
-96.5452
-125.868
-155.334
-184.617
-213.506
-241.59
-268.485
-293.762
-316.939
-337.525
-355.058
-369.122
-379.394
-385.57
-387.572
-385.32
-378.665
-367.324
-351.132
-330.753
-307.679
-283.216
-257.802
-231.333
-203.772
-175.219
-145.638
-114.925
-82.4937
-48.8283
-10.6164
21.6569
93.6572
109.59
126.147
142.539
157.178
170.158
180.857
188.586
193.333
195.362
194.976
192.542
188.348
182.624
175.576
167.332
158.018
147.762
136.683
124.904
112.556
99.7861
86.7624
73.7505
61.157
49.4273
38.8903
29.7132
21.9956
15.8364
11.3088
8.43468
7.20847
7.67103
9.90517
14.2182
20.9851
32.0255
46.1647
72.1777
54.685
34.3379
11.9265
-11.2153
-36.2018
-62.2997
-88.8988
-116.069
-143.397
-170.605
-197.548
-223.871
-249.256
-273.33
-295.656
-315.774
-333.234
-347.598
-358.536
-365.671
-368.842
-367.923
-362.764
-353.143
-338.926
-320.608
-299.395
-276.448
-252.265
-226.852
-200.213
-172.458
-143.576
-113.501
-81.7053
-48.6871
-11.4796
20.0651
88.036
102.936
118.472
133.901
147.73
160.081
170.356
177.9
182.699
185.005
185.096
183.307
179.902
175.079
169.013
161.797
153.524
144.289
134.182
123.306
111.782
99.7504
87.3745
74.9108
62.75
51.318
40.9434
31.8217
24.0797
17.8306
13.1623
10.1152
8.69992
8.96483
11.0015
15.103
21.6124
32.1505
45.3968
67.7365
51.3514
32.2989
11.3432
-10.2214
-33.4885
-57.759
-82.4541
-107.676
-133.049
-158.339
-183.445
-208.07
-231.95
-254.769
-276.138
-295.628
-312.814
-327.253
-338.612
-346.484
-350.629
-350.882
-347.085
-339.054
-326.668
-310.286
-290.873
-269.44
-246.511
-222.182
-196.495
-169.571
-141.425
-112.022
-80.9003
-48.5724
-12.4105
18.3703
82.6142
96.5914
111.216
125.777
138.876
150.644
160.515
167.864
172.671
175.182
175.652
174.391
171.646
167.595
162.387
156.093
148.777
140.505
131.34
121.362
110.673
99.4029
87.7044
75.8211
64.1287
53.037
42.8706
33.8453
26.1127
19.8012
15.0132
11.8076
10.2115
10.2809
12.1162
15.9952
22.228
32.2391
44.6046
63.4253
48.0367
30.1491
10.5038
-9.64621
-31.3691
-53.9925
-76.9721
-100.426
-124.011
-147.53
-170.921
-193.932
-216.347
-237.898
-258.244
-276.996
-293.757
-308.099
-319.676
-328.083
-333.011
-334.268
-331.687
-325.104
-314.401
-299.827
-282.142
-262.208
-240.548
-217.326
-192.62
-166.56
-139.184
-110.489
-80.0785
-48.48
-13.4068
16.5804
77.4211
90.5683
104.368
118.143
130.575
141.802
151.288
158.434
163.216
165.873
166.643
165.815
163.623
160.23
155.77
150.296
143.85
136.474
128.208
119.105
109.251
98.7542
87.7546
76.478
65.2856
54.5731
44.658
35.7696
28.0808
21.7353
16.85
13.5014
11.7338
11.6109
13.2419
16.8885
22.8276
32.2915
43.7919
59.2745
44.7896
27.9574
9.49915
-9.37469
-29.7003
-50.8335
-72.2595
-94.1063
-116.057
-137.948
-159.743
-181.228
-202.231
-222.526
-241.818
-259.757
-275.979
-290.078
-301.699
-310.463
-316.005
-318.108
-316.599
-311.324
-302.16
-289.267
-273.23
-254.769
-234.386
-212.29
-188.59
-163.424
-136.852
-108.901
-79.2398
-48.4082
-14.4606
14.7016
72.4717
84.8678
97.916
110.973
122.792
133.515
142.633
149.571
154.303
157.059
158.065
157.59
155.861
153.029
149.217
144.466
138.805
132.255
124.835
116.576
107.54
97.8188
87.5303
76.8816
66.2177
55.9192
46.2955
37.5836
29.9735
23.6237
18.665
15.1909
13.2627
12.952
14.3765
17.7812
23.4101
32.3105
42.9629
55.3037
41.6415
25.7709
8.39536
-9.32062
-28.376
-48.1567
-68.1691
-88.5509
-109.009
-129.402
-149.714
-169.767
-189.421
-208.492
-226.723
-243.806
-259.408
-273.15
-284.678
-293.639
-299.64
-302.44
-301.861
-297.753
-289.987
-278.647
-264.171
-247.148
-228.039
-207.081
-184.407
-160.164
-134.429
-107.258
-78.3841
-48.3558
-15.5645
12.7416
67.7717
79.4842
91.8435
104.24
115.493
125.742
134.508
141.237
145.897
148.718
149.906
149.72
148.377
146.024
142.772
138.658
133.699
127.903
121.27
113.813
105.573
96.6167
87.0429
77.0362
66.9228
57.0691
47.7734
39.2757
31.779
25.4552
20.4483
16.8675
14.791
14.2983
15.5152
18.6696
23.9734
32.2981
42.1216
51.5227
38.6137
23.6269
7.24016
-9.41679
-27.315
-45.8599
-64.5841
-83.6266
-102.717
-121.729
-140.67
-159.383
-177.761
-195.652
-212.833
-229.037
-243.962
-257.258
-268.582
-277.606
-283.929
-287.288
-287.502
-284.425
-277.919
-268.005
-254.997
-239.366
-221.52
-201.707
-180.077
-156.782
-131.916
-105.559
-77.5097
-48.3218
-16.7096
10.7126
63.3209
74.4064
86.1302
97.9168
108.644
118.447
126.876
133.394
137.971
140.825
142.155
142.203
141.184
139.237
136.469
132.913
128.579
123.465
117.559
110.857
103.378
95.1698
86.3063
76.9486
67.4027
58.0191
49.084
40.836
33.4867
27.2195
22.1903
18.5231
16.3119
15.6444
16.6534
19.5505
24.5158
32.2569
41.2732
47.9351
35.7203
21.5464
6.07162
-9.61636
-26.4519
-43.8656
-61.4085
-79.2257
-97.0598
-114.802
-132.472
-149.937
-167.111
-183.872
-200.029
-215.349
-229.563
-242.351
-253.385
-262.356
-268.88
-272.674
-273.551
-271.372
-265.992
-257.379
-245.744
-231.45
-214.847
-196.179
-175.606
-153.282
-129.313
-103.804
-76.6161
-48.3042
-17.888
8.62591
59.1156
69.6227
80.7588
91.9798
102.214
111.597
119.703
126.012
130.492
133.357
134.794
135.034
134.286
132.685
130.333
127.265
123.485
118.986
113.745
107.746
100.989
93.5019
85.336
76.6281
67.6614
58.7682
50.2216
42.2556
35.0865
28.9061
23.8812
20.1488
17.8178
16.9842
17.7863
20.4202
25.0359
32.1897
40.4223
44.5416
32.9691
19.5471
4.91421
-9.88031
-25.7388
-42.1109
-58.5704
-75.261
-91.94
-108.51
-125.004
-141.304
-157.346
-173.033
-188.201
-202.648
-216.135
-228.37
-239.049
-247.875
-254.496
-258.609
-260.029
-258.622
-254.24
-246.807
-236.448
-223.429
-208.041
-190.511
-171.001
-149.666
-126.623
-101.994
-75.7013
-48.2998
-19.0908
6.49455
55.149
65.1209
75.7108
86.4045
96.1765
105.16
112.956
119.059
123.435
126.293
127.809
128.205
127.683
126.377
124.385
121.742
118.452
114.503
109.867
104.516
98.4379
91.6397
84.1523
76.0879
67.7051
59.3169
51.1822
43.5272
36.5687
30.5049
25.511
21.7355
19.3006
18.3111
18.9086
21.2751
25.5323
32.0992
39.5734
41.3391
30.3633
17.6401
3.78827
-10.1809
-25.1363
-40.5483
-56.0089
-71.6613
-87.2753
-102.765
-118.169
-133.387
-148.369
-163.039
-177.258
-190.851
-203.605
-215.259
-225.533
-234.142
-240.769
-245.101
-246.956
-246.205
-242.698
-236.326
-227.143
-215.332
-201.122
-184.717
-166.273
-145.942
-123.847
-100.129
-74.7635
-48.3044
-20.3086
4.33204
51.4143
60.8875
70.9679
81.1675
90.5046
99.1107
106.609
112.51
116.776
119.611
121.185
121.706
121.374
120.319
118.638
116.365
113.506
110.048
105.958
101.202
95.7556
89.61
82.7766
75.3426
67.5423
59.6684
51.9639
44.6449
37.9254
32.0064
27.07
23.274
20.7523
19.618
20.0146
22.1114
26.0036
31.9884
38.7313
38.3236
27.904
15.8315
2.70706
-10.4961
-24.6147
-39.1375
-53.6756
-68.3673
-82.9981
-97.4887
-111.884
-126.096
-140.087
-153.799
-167.112
-179.876
-191.906
-202.965
-212.798
-221.132
-227.689
-232.153
-234.343
-234.139
-231.393
-225.969
-217.865
-207.189
-194.115
-178.814
-161.433
-142.116
-120.991
-98.2099
-73.8007
-48.3132
-21.5309
2.15302
47.9015
56.9094
66.5121
76.2478
85.1743
93.4225
100.635
106.337
110.49
113.292
114.904
115.527
115.353
114.512
113.099
111.149
108.67
105.648
102.05
97.8358
92.9728
87.4396
81.2299
74.4083
67.184
59.8284
52.5672
45.6047
39.1492
33.4017
28.5485
24.7548
22.1641
20.8976
21.0986
22.9252
26.4487
31.86
37.9008
35.4894
25.5892
14.1257
1.68063
-10.8112
-24.1504
-37.8483
-51.5307
-65.3343
-79.0535
-92.6193
-106.079
-119.354
-132.42
-145.231
-157.685
-169.653
-180.972
-191.432
-200.8
-208.819
-215.243
-219.764
-222.202
-222.446
-220.353
-215.769
-208.646
-199.032
-187.044
-172.821
-156.493
-138.195
-118.056
-96.2371
-72.8105
-48.321
-22.7487
-0.0291473
44.6009
53.1741
62.3282
71.6258
80.1648
88.0725
95.0102
100.517
104.554
107.315
108.951
109.655
109.614
108.957
107.775
106.106
103.961
101.325
98.1673
94.4443
90.1176
85.155
79.5356
73.3035
66.6431
59.804
52.9943
46.4042
40.2344
34.6831
29.9377
26.1688
23.5277
22.1421
22.1545
23.7126
26.8667
31.7167
37.086
32.8297
23.4166
12.5238
0.715081
-11.1124
-23.7256
-36.6553
-49.543
-62.5213
-75.3969
-88.1048
-100.696
-113.1
-125.302
-137.266
-148.908
-160.115
-170.744
-180.608
-189.498
-197.173
-203.413
-207.926
-210.537
-211.139
-209.6
-205.756
-199.52
-190.891
-179.935
-166.758
-151.468
-134.19
-115.049
-94.2118
-71.7906
-48.3211
-23.9506
-2.19928
41.5032
49.6678
58.3997
67.2844
75.456
83.0385
89.712
95.0283
98.9498
101.662
103.311
104.079
104.15
103.649
102.667
101.245
99.3915
97.0982
94.333
91.0532
87.2158
82.7813
77.7166
72.047
65.9339
59.6044
53.2489
47.0433
41.1771
35.8433
31.229
27.5071
24.834
23.3437
23.1761
24.4696
27.2564
31.561
36.291
30.3372
21.3823
11.026
-0.185727
-11.391
-23.3259
-35.5383
-47.6855
-59.897
-71.9881
-83.8991
-95.6826
-107.277
-118.673
-129.844
-140.719
-151.201
-161.165
-170.444
-178.851
-186.163
-192.179
-196.632
-199.348
-200.23
-199.155
-195.956
-190.517
-182.795
-172.815
-160.645
-146.375
-130.111
-111.974
-92.136
-70.7377
-48.3072
-25.1262
-4.34325
38.5987
46.3789
54.712
63.2053
71.0281
78.3006
84.7204
89.8521
93.6575
96.3164
97.968
98.7865
98.952
98.5855
97.7767
96.5678
94.9718
92.9807
90.5651
87.6834
84.2908
80.3416
75.7942
70.658
65.0714
59.2405
53.3374
47.5229
41.9744
36.8773
32.4149
28.7609
26.0748
24.4948
24.1573
25.1924
27.6171
31.3952
35.5195
28.0047
19.4819
9.63064
-1.01967
-11.6414
-22.9407
-34.4823
-45.9384
-57.4349
-68.7953
-79.9657
-90.9978
-101.837
-112.482
-122.91
-133.063
-142.857
-152.184
-160.894
-168.819
-175.756
-181.519
-185.869
-188.635
-189.727
-189.036
-186.394
-181.665
-174.775
-165.71
-154.506
-141.229
-125.969
-108.84
-90.0104
-69.6503
-48.2713
-26.2645
-6.4459
35.8777
43.295
51.2509
59.3728
66.864
73.8406
80.0161
84.969
88.6592
91.2613
92.9081
93.766
94.0103
93.7592
93.1007
92.0784
90.7078
88.9834
86.8787
84.3536
81.363
77.8577
73.7896
69.1547
64.0714
58.724
53.2671
47.846
42.6252
37.7802
33.4887
29.9224
27.2419
25.5875
25.0918
25.8769
27.9477
31.2212
34.7746
25.8251
17.7095
8.33571
-1.78574
-11.8588
-22.5613
-33.4745
-44.2841
-55.1128
-65.7916
-76.272
-86.6047
-96.7418
-106.684
-116.418
-125.892
-135.036
-143.754
-151.914
-159.364
-165.921
-171.411
-175.624
-178.391
-179.633
-179.255
-177.09
-172.991
-166.857
-158.645
-148.362
-136.048
-121.777
-105.652
-87.8391
-68.5247
-48.2067
-27.3562
-8.49269
33.3304
40.4045
48.0031
55.7727
62.9477
69.6422
75.5825
80.3615
83.938
86.4811
88.117
89.005
89.3153
89.1634
88.6357
87.7767
86.6041
85.115
83.2858
81.0791
78.4504
75.3494
71.723
67.5569
62.9504
58.0678
53.0467
48.0175
43.1302
38.5493
34.4448
30.9846
28.3274
26.6145
25.9734
26.5193
28.2474
31.0404
34.0587
23.7906
16.0607
7.13753
-2.4838
-12.0407
-22.1817
-32.5046
-42.7094
-52.9128
-62.9554
-72.792
-82.4733
-91.9547
-101.242
-110.327
-119.163
-127.694
-135.833
-143.463
-150.45
-156.627
-161.831
-165.88
-168.609
-169.951
-169.822
-168.063
-164.518
-159.069
-151.648
-142.237
-130.851
-117.548
-102.419
-85.6229
-67.3592
-48.1065
-28.39
-10.4707
30.9476
37.6967
44.9567
52.3908
59.2644
65.6892
71.4033
76.0137
79.4784
81.9609
83.5815
84.492
84.8579
84.7914
84.3775
83.6613
82.6625
81.3808
79.7957
77.8724
75.5685
72.8341
69.6128
65.8819
61.724
57.285
52.6863
48.043
43.4913
39.183
35.2791
31.9409
29.3242
27.5688
26.7964
27.1157
28.515
30.8544
33.3738
21.8939
14.5293
6.03307
-3.11529
-12.1853
-21.7978
-31.5652
-41.2019
-50.82
-60.2677
-69.5022
-78.5754
-87.4459
-96.1215
-104.598
-112.838
-120.791
-128.381
-135.506
-142.043
-147.843
-152.755
-156.62
-159.282
-160.68
-160.744
-159.327
-156.266
-151.433
-144.743
-136.152
-125.657
-113.296
-99.1499
-83.366
-66.1511
-47.9614
-29.3571
-12.3673
28.7207
35.1615
42.0996
49.2139
55.8
61.9666
67.4636
71.9105
75.2657
77.6869
79.2884
80.2151
80.6277
80.6353
80.3201
79.7291
78.883
77.7839
76.4147
74.7437
72.7308
70.3271
67.4751
64.1462
60.408
56.3892
52.1961
47.9299
43.7119
39.6814
35.9883
32.7865
30.2259
28.4437
27.5552
27.6625
28.7498
30.6635
32.721
20.128
13.1097
5.01856
-3.68205
-12.2921
-21.4052
-30.6498
-39.7524
-48.8211
-57.7112
-66.3834
-74.8881
-83.188
-91.2928
-99.2015
-106.882
-114.291
-121.363
-128.006
-134.11
-139.541
-144.16
-147.826
-150.395
-151.814
-152.026
-150.892
-148.253
-143.973
-137.951
-130.129
-120.483
-109.036
-95.8527
-81.072
-64.8985
-47.7661
-30.2473
-14.1702
26.641
32.7887
39.4207
46.2305
52.5416
58.4608
63.7491
68.0378
71.2861
73.6456
75.2253
76.1633
76.6145
76.6863
76.4578
75.9765
75.2648
74.3265
73.1479
71.7007
69.9476
67.8413
65.325
62.3654
59.0174
55.394
51.5877
47.6861
43.7968
40.0456
36.571
33.5171
31.027
29.2333
28.2445
28.1562
28.9504
30.4682
32.1007
18.4858
11.7965
4.08976
-4.18608
-12.361
-21.0028
-29.754
-38.354
-46.9066
-55.2742
-63.4196
-71.3927
-79.1595
-86.7306
-94.1083
-101.265
-108.164
-114.746
-120.931
-126.621
-131.694
-136.02
-139.481
-141.938
-143.35
-143.669
-142.769
-140.494
-136.706
-131.296
-124.189
-115.349
-104.781
-92.5384
-78.7445
-63.6003
-47.5135
-31.053
-15.8693
24.7003
30.5695
36.9096
43.4287
49.477
55.1592
60.2464
64.3829
67.527
69.8249
71.3803
72.3251
72.8092
72.9362
72.7835
72.3985
71.8049
71.0084
69.9982
68.7495
67.2277
65.3883
63.1756
60.5536
57.5665
54.3127
50.8724
47.3206
43.7518
40.2783
37.0265
34.13
31.7233
29.9327
28.8598
28.5937
29.1156
30.2684
31.5125
16.9605
10.5839
3.24265
-4.63002
-12.3931
-20.5887
-28.8742
-37.0011
-45.0683
-52.945
-60.5969
-68.0723
-75.3404
-82.4126
-89.2939
-95.9604
-102.38
-108.502
-114.254
-119.548
-124.275
-128.315
-131.564
-133.897
-135.278
-135.671
-134.962
-133.001
-129.649
-124.794
-118.353
-110.273
-100.548
-89.216
-76.3881
-62.2559
-47.1976
-31.7666
-17.4551
22.8908
28.4949
34.5567
40.7977
46.5948
52.0497
56.9437
60.9331
63.9755
66.2125
67.7423
68.6906
69.2019
69.3766
69.2902
68.99
68.5002
67.8288
66.9672
65.8939
64.5778
62.977
61.0383
58.7237
56.0684
53.1581
50.0616
46.8428
43.5836
40.3834
37.356
34.6237
32.3112
30.5375
29.3971
28.9718
29.2442
30.0633
30.9553
15.5454
9.46644
2.47299
-5.01663
-12.3892
-20.1623
-28.0076
-35.6876
-43.2981
-50.7133
-57.9027
-64.912
-71.7136
-78.3199
-84.7368
-90.9445
-96.9154
-102.605
-107.948
-112.865
-117.26
-121.022
-124.059
-126.259
-127.591
-128.031
-127.474
-125.781
-122.817
-118.465
-112.637
-105.272
-96.3487
-85.8957
-74.0081
-60.8644
-46.8138
-32.3812
-18.9189
21.2049
26.5565
32.3526
38.3277
43.8842
49.1213
53.8295
57.6765
60.6205
62.7974
64.3003
65.2489
65.7827
65.9991
65.9707
65.745
65.3468
64.7852
64.0548
63.1367
62.0031
60.6153
58.9226
56.8868
54.5352
51.9422
49.1667
46.2625
43.2999
40.3658
37.5616
34.9978
32.7888
31.0447
29.8531
29.2881
29.3348
29.8519
30.4274
14.2342
8.43882
1.77651
-5.34877
-12.3507
-19.7237
-27.1522
-34.4108
-41.5901
-48.5717
-55.3265
-61.899
-68.2637
-74.4342
-80.4173
-86.196
-91.7467
-97.0302
-101.988
-106.549
-110.626
-114.119
-116.946
-119.007
-120.279
-120.743
-120.308
-118.844
-116.22
-112.322
-107.058
-100.36
-92.1981
-82.5877
-71.6096
-59.4273
-46.3574
-32.8914
-20.2545
19.6356
24.7463
30.2886
36.0094
41.3354
46.3635
50.8927
54.6025
57.4509
59.5685
61.0436
61.9902
62.5424
62.7948
62.8175
62.6573
62.3395
61.875
61.2601
60.4791
59.5071
58.3086
56.8363
55.0523
52.9777
50.6764
48.1987
45.5896
42.9088
40.2314
37.6467
35.2535
33.1551
31.4521
30.2251
29.5404
29.3859
29.6328
29.9265
13.0209
7.49568
1.14905
-5.62957
-12.2795
-19.273
-26.3071
-33.1672
-39.9404
-46.5135
-52.86
-59.0229
-64.9788
-70.7412
-76.3184
-81.696
-86.8533
-91.7559
-96.3513
-100.576
-104.351
-107.586
-110.208
-112.129
-113.33
-113.801
-113.462
-112.191
-109.867
-106.378
-101.631
-95.5539
-88.109
-79.302
-69.1986
-57.9453
-45.8265
-33.2933
-21.4562
18.1758
23.0565
28.3563
33.8336
38.9387
43.7661
48.1233
51.7008
54.4563
56.5155
57.9625
58.9047
59.4722
59.7559
59.8233
59.7205
59.4737
59.0946
58.5813
57.9211
57.0919
56.0618
54.7864
53.229
51.4056
49.3711
47.1681
44.8339
42.4187
39.9868
37.6158
35.393
33.4104
31.7587
30.5114
29.7269
29.3962
29.4044
29.4495
11.8995
6.63215
0.586397
-5.86205
-12.1776
-18.8106
-25.471
-31.9544
-38.3444
-44.5326
-50.4954
-56.2739
-61.8465
-67.2274
-72.4253
-77.4278
-82.2171
-86.763
-91.0186
-94.927
-98.4162
-101.405
-103.828
-105.609
-106.733
-107.197
-106.932
-105.826
-103.764
-100.642
-96.3666
-90.8654
-84.0935
-76.048
-66.7813
-56.4208
-45.2195
-33.5837
-22.5203
16.8191
21.4803
26.548
31.7922
36.6855
41.3201
45.5115
48.9611
51.6269
53.6289
55.0474
55.9837
56.5633
56.8737
56.9802
56.9282
56.7439
56.4397
56.0159
55.4621
54.7589
53.8777
52.7778
51.4239
49.8274
48.0358
46.0849
44.0051
41.8384
39.6393
37.4744
35.4197
33.5563
31.9647
30.7111
29.8463
29.3644
29.1644
28.9931
10.8645
5.84325
0.0845062
-6.04944
-12.0468
-18.3378
-24.6439
-30.7709
-36.7987
-42.6245
-48.2261
-53.6438
-58.8571
-63.8807
-68.7238
-73.376
-77.8215
-82.0338
-85.971
-89.5821
-92.8018
-95.5571
-97.7889
-99.4326
-100.477
-100.924
-100.714
-99.7467
-97.9157
-95.1217
-91.2763
-86.3059
-80.1625
-72.8353
-64.3635
-54.8567
-44.5356
-33.7613
-23.4444
15.5595
20.0107
24.8563
29.877
34.5672
39.0165
43.0485
46.3747
48.9533
50.8993
52.2889
53.218
53.807
54.1405
54.2812
54.2737
54.1442
53.906
53.5609
53.1006
52.5084
51.7589
50.8149
49.6429
48.2507
46.6791
44.9581
43.1125
41.1768
39.1966
37.2286
35.3381
33.5955
32.0713
30.8242
29.8981
29.2894
28.9109
28.5535
9.91055
5.12439
-0.360546
-6.19457
-11.8895
-17.8554
-23.8255
-29.6152
-35.3005
-40.7846
-46.0467
-51.1254
-56.0019
-60.6911
-65.2025
-69.527
-73.6516
-77.5523
-81.1916
-84.5237
-87.4903
-90.0248
-92.0745
-93.5847
-94.5471
-94.9701
-94.8021
-93.9522
-92.3231
-89.823
-86.3677
-81.8853
-76.3259
-69.6722
-61.9522
-53.257
-43.7761
-33.8255
-24.2275
14.3906
18.6414
23.2741
28.0806
32.5759
36.8472
40.7255
43.9327
46.4267
48.318
49.6784
50.5989
51.1951
51.5483
51.7188
51.7504
51.6691
51.4887
51.2126
50.8342
50.3398
49.7064
48.9004
47.8906
46.6818
45.3086
43.7964
42.165
40.4426
38.6668
36.8854
35.1535
33.5317
32.0806
30.8516
29.882
29.17
28.6416
28.1269
9.03259
4.47079
-0.752515
-6.30057
-11.7078
-17.3644
-23.0158
-28.4859
-33.8481
-39.0098
-43.9522
-48.7123
-53.2731
-57.6493
-61.8505
-65.8691
-69.6939
-73.3037
-76.665
-79.7363
-82.4652
-84.792
-86.6693
-88.0512
-88.9329
-89.3269
-89.1891
-88.4384
-86.9864
-84.7487
-81.6465
-77.6114
-72.5922
-66.5671
-59.5537
-51.6257
-42.9431
-33.7778
-24.8704
13.3072
17.366
21.7949
26.3959
30.7042
34.8043
38.5345
41.6267
44.0388
45.8765
47.2077
48.1185
48.7197
49.0895
49.286
49.3516
49.3126
49.1829
48.9672
48.6607
48.2519
47.7206
47.0368
46.1711
45.126
43.9312
42.6076
41.1712
39.6444
38.0582
36.4521
34.8722
33.3696
31.9959
30.7951
29.7986
29.0057
28.3541
27.7091
8.2257
3.87841
-1.09521
-6.37045
-11.5037
-16.8664
-22.2151
-27.3827
-32.439
-37.2966
-41.9378
-46.3988
-50.6635
-54.7467
-58.658
-62.391
-65.9363
-69.2748
-72.3765
-75.2045
-77.7112
-79.8434
-81.5585
-82.8182
-83.6212
-83.9828
-83.8666
-83.1999
-81.9034
-79.9
-77.1171
-73.49
-68.9686
-63.5272
-57.1744
-49.9679
-42.04
-33.6205
-25.3748
12.3037
16.1789
20.4126
24.8164
28.945
32.8805
36.4681
39.449
41.7817
43.5669
44.8689
45.7689
46.3731
46.757
46.9757
47.0712
47.069
46.9836
46.8205
46.577
46.2431
45.8015
45.2253
44.4872
43.5881
42.5528
41.399
40.1389
38.7906
37.379
35.9363
34.5008
33.1147
31.8211
30.6574
29.649
28.796
28.0463
27.2961
7.48524
3.34292
-1.39208
-6.40708
-11.2794
-16.3627
-21.4239
-26.305
-31.072
-35.6426
-40.0005
-44.1802
-48.1671
-51.9759
-55.6162
-59.0826
-62.3671
-65.453
-68.3132
-70.9144
-73.2141
-75.1644
-76.7276
-77.8719
-78.5991
-78.9272
-78.8258
-78.2304
-77.0704
-75.2761
-72.7813
-69.5258
-65.4609
-60.5589
-54.8206
-48.2892
-41.0711
-33.3576
-25.7438
11.3752
15.0746
19.1212
23.3357
27.2917
31.0688
34.5187
37.3923
39.6479
41.3818
42.6545
43.5428
44.1483
44.5436
44.7815
44.9026
44.9325
44.8857
44.7687
44.5799
44.3115
43.9484
43.4666
42.8414
42.0717
41.1786
40.1768
39.0755
37.8891
36.6373
35.3461
34.0465
32.7731
31.5613
30.4417
29.4349
28.5409
27.7163
26.884
6.80677
2.86052
-1.64656
-6.41322
-11.0371
-15.8545
-20.6428
-25.2523
-29.7459
-34.0455
-38.1365
-42.0518
-45.7783
-49.3301
-52.7172
-55.935
-58.9765
-61.8271
-64.4628
-66.8531
-68.9602
-70.7411
-72.1628
-73.199
-73.8543
-74.1486
-74.0569
-73.5224
-72.4825
-70.8748
-68.6396
-65.7212
-62.0738
-57.6679
-52.4983
-46.5953
-40.0419
-32.9937
-25.9821
10.5168
14.0478
17.9149
21.9478
25.7379
29.3625
32.6799
35.4496
37.6302
39.3137
40.5573
41.433
42.0383
42.4425
42.6967
42.84
42.8977
42.8844
42.8073
42.666
42.4545
42.1599
41.7609
41.235
40.5799
39.8131
38.9467
37.9879
36.9476
35.8412
34.6894
33.517
32.3516
31.2217
30.152
29.1584
28.2407
27.3624
26.469
6.18617
2.42727
-1.86181
-6.3916
-10.7786
-15.3433
-19.8725
-24.2245
-28.4593
-32.5032
-36.3427
-40.0097
-43.4918
-46.8033
-49.9537
-52.9396
-55.7551
-58.387
-60.8138
-63.0085
-64.9368
-66.5607
-67.8509
-68.7865
-69.3741
-69.6352
-69.5498
-69.0677
-68.1336
-66.6925
-64.6907
-62.0778
-58.8104
-54.859
-50.2134
-44.8922
-38.9583
-32.535
-26.095
9.72382
13.0937
16.7886
20.6472
24.2778
27.7556
30.945
33.614
35.722
37.3561
38.5705
39.4327
40.0362
40.4475
40.7152
40.8775
40.9591
40.9747
40.9321
40.8321
40.6699
40.4348
40.1081
39.6693
39.1153
38.4602
37.7141
36.8824
35.9731
34.9984
33.9742
32.9199
31.8571
30.8084
29.793
28.8226
27.8962
26.9831
26.0479
5.61942
2.03977
-2.04107
-6.34468
-10.5062
-14.8302
-19.1133
-23.2213
-27.2114
-31.0139
-34.6167
-38.0501
-41.3033
-44.3897
-47.3192
-50.0887
-52.6938
-55.1226
-57.3558
-59.3691
-61.1319
-62.6106
-63.7793
-64.6218
-65.1464
-65.3756
-65.2938
-64.8571
-64.0168
-62.7244
-60.9324
-58.5954
-55.673
-52.1362
-47.9709
-43.1862
-37.827
-31.9882
-26.089
8.99212
12.2076
15.7374
19.4283
22.9057
26.242
29.3078
31.8796
33.9167
35.5024
36.6875
37.5356
38.136
38.5523
38.8311
39.0095
39.1115
39.1519
39.139
39.0745
38.9549
38.7714
38.5077
38.1451
37.6797
37.1231
36.4834
35.7646
34.9726
34.1163
33.2082
32.2628
31.297
30.3277
29.3696
28.4307
27.5087
26.5776
25.6175
5.10274
1.69455
-2.18724
-6.27496
-10.2216
-14.3167
-18.3661
-22.2427
-26.0014
-29.576
-32.9557
-36.1697
-39.2081
-42.084
-44.8074
-47.3755
-49.7849
-52.025
-54.0787
-55.9243
-57.5344
-58.879
-59.9358
-60.6924
-61.1588
-61.3582
-61.2784
-60.8813
-60.1241
-58.9645
-57.361
-55.2726
-52.6625
-49.5024
-45.7756
-41.4833
-36.6551
-31.3608
-25.9714
8.31752
11.385
14.7564
18.2864
21.6163
24.8164
27.7628
30.2403
32.2085
33.7467
34.9025