/*--------------------------------*- C++ -*----------------------------------*\
| =========                 |                                                 |
| \\      /  F ield         | OpenFOAM: The Open Source CFD Toolbox           |
|  \\    /   O peration     | Version:  2312                                  |
|   \\  /    A nd           | Website:  www.openfoam.com                      |
|    \\/     M anipulation  |                                                 |
\*---------------------------------------------------------------------------*/
FoamFile
{
    version     2.0;
    format      ascii;
    arch        "LSB;label=32;scalar=64";
    class       surfaceScalarField;
    location    "150";
    object      phi;
}
// * * * * * * * * * * * * * * * * * * * * * * * * * * * * * * * * * * * * * //

dimensions      [0 3 -1 0 0 0 0];

oriented        oriented;

internalField   nonuniform List<scalar> 
21254
(
-0.226132
0.245808
-0.019676
0.267856
-0.0220479
0.286973
-0.0191171
0.304116
-0.0171431
0.320347
-0.0162307
0.333398
-0.0130513
0.343742
-0.0103442
0.352111
-0.0083689
0.357557
-0.00544539
0.36105
-0.00349349
0.362714
-0.00166415
0.3621
0.000614076
0.359265
0.00283466
0.353988
0.00527741
0.345927
0.00806129
0.335012
0.0109146
0.320571
0.0144415
0.302061
0.0185098
0.278525
0.0235356
0.249376
0.0291493
0.214045
0.0353313
0.174924
0.0391217
0.138377
0.0365466
0.114043
0.0243345
0.107597
0.00644673
0.114967
-0.0073704
0.127163
-0.0121949
0.138586
-0.0114232
0.146985
-0.00839878
0.151983
-0.00499939
0.15384
-0.0018565
0.152749
0.00109143
0.148931
0.0038183
0.142608
0.00632286
0.133513
0.00909646
0.120614
0.0129009
0.10193
0.0186869
0.0728925
0.029045
0.0708909
0.00212841
-0.203086
-0.0230464
-0.179147
-0.0239386
-0.149865
-0.0292818
-0.117853
-0.032012
-0.0842135
-0.0336397
-0.0496378
-0.0345757
-0.0157541
-0.0338837
0.0156534
-0.0314074
0.0443535
-0.0286999
0.0696059
-0.0252523
0.0912258
-0.0216198
0.109548
-0.0183226
0.124906
-0.0153571
0.137673
-0.0127675
0.148575
-0.010902
0.157922
-0.00934641
0.166189
-0.00826708
0.173604
-0.00741531
0.180475
-0.00687033
0.186915
-0.00644015
0.193091
-0.00617643
0.198984
-0.00589302
0.204515
-0.00553112
0.209023
-0.00450776
0.212329
-0.00330603
0.214764
-0.00243512
0.216388
-0.00162451
0.217438
-0.0010501
0.218049
-0.000611006
0.218199
-0.000150245
0.217668
0.000531624
0.216375
0.00129284
0.214321
0.00205375
0.211545
0.00277626
0.207961
0.00358407
0.20323
0.00473036
0.196384
0.00684544
0.182454
0.013924
0.16298
0.0194781
-0.206307
0.22774
-0.0411094
0.249702
-0.0440096
0.272686
-0.0421012
0.29418
-0.0386377
0.315217
-0.0372674
0.334822
-0.0326561
0.352586
-0.0281085
0.368788
-0.0245711
0.383057
-0.0197139
0.395473
-0.0159103
0.406169
-0.0123602
0.415539
-0.00875534
0.424037
-0.0056639
0.431803
-0.00248845
0.438655
0.0012092
0.444189
0.00538051
0.448115
0.0105155
0.450173
0.0164526
0.44921
0.024499
0.444386
0.033973
0.433672
0.0460454
0.415772
0.0570217
0.390072
0.0622477
0.359816
0.0545909
0.330379
0.0358845
0.303812
0.0191969
0.279989
0.0116281
0.259095
0.00947098
0.241707
0.0089886
0.228038
0.0086685
0.217136
0.00904644
0.207609
0.0106177
0.198107
0.0133197
0.187647
0.0167826
0.175461
0.0212844
0.160134
0.0282296
0.140378
0.0384464
0.106873
0.0625576
0.07689
0.0321897
-0.184433
-0.0449197
-0.161018
-0.0473537
-0.133607
-0.0566932
-0.104629
-0.0609898
-0.0738632
-0.0644055
-0.0416906
-0.0667483
-0.00957691
-0.0659974
0.0209966
-0.0619807
0.0487348
-0.056438
0.0734395
-0.0499569
0.0949183
-0.0430985
0.113543
-0.0369472
0.129741
-0.0315551
0.143733
-0.0267596
0.155979
-0.0231477
0.16678
-0.0201469
0.176428
-0.017915
0.185232
-0.0162195
0.193448
-0.015087
0.201186
-0.0141778
0.208607
-0.0135976
0.215781
-0.013067
0.222637
-0.0123871
0.22871
-0.0105815
0.233724
-0.00832052
0.237867
-0.00657829
0.241035
-0.00479264
0.243136
-0.00315024
0.244126
-0.00160102
0.244125
-0.000148447
0.243363
0.00129416
0.24202
0.0026362
0.240114
0.00396021
0.237641
0.00524875
0.234525
0.0067006
0.230461
0.00879367
0.225485
0.011821
0.214998
0.0244031
0.196796
0.0376858
-0.200375
0.222066
-0.0628009
0.243933
-0.0658764
0.267552
-0.0657206
0.289166
-0.060251
0.309741
-0.057843
0.329438
-0.0523527
0.346963
-0.0456333
0.362703
-0.0403115
0.376214
-0.0332241
0.387746
-0.0274429
0.397294
-0.021908
0.404961
-0.0164229
0.410581
-0.0112835
0.414619
-0.00652636
0.41697
-0.00114131
0.418639
0.00371129
0.419678
0.00947609
0.420946
0.0151849
0.422776
0.022669
0.42581
0.0309385
0.430254
0.0416013
0.434875
0.0524011
0.436757
0.0603654
0.432924
0.0584242
0.423531
0.0452773
0.410597
0.0321309
0.395228
0.026997
0.377044
0.0276548
0.355549
0.0304846
0.331239
0.0329774
0.305907
0.0343795
0.281731
0.0347944
0.25992
0.0351314
0.240015
0.0366875
0.220507
0.0407926
0.199253
0.0494849
0.174495
0.0632052
0.137507
0.0995472
0.0935682
0.0761722
-0.178555
-0.0667395
-0.154686
-0.0712226
-0.126156
-0.0852229
-0.0965079
-0.090638
-0.0655484
-0.095365
-0.0334445
-0.0988521
-0.0017041
-0.0977377
0.0278942
-0.0915789
0.0549141
-0.0834578
0.0793648
-0.0744075
0.100904
-0.0646375
0.119724
-0.0557669
0.136202
-0.0480332
0.150611
-0.041169
0.163264
-0.0358002
0.174503
-0.0313863
0.184595
-0.0280063
0.193806
-0.0254306
0.202345
-0.0236257
0.210375
-0.022208
0.218083
-0.0213056
0.22548
-0.0204638
0.232465
-0.019372
0.238733
-0.01685
0.243993
-0.0135805
0.248359
-0.0109443
0.2519
-0.00833341
0.254653
-0.00590353
0.256683
-0.00363142
0.257982
-0.00144808
0.258608
0.000667453
0.258522
0.00272217
0.257729
0.00475325
0.256155
0.00682231
0.253717
0.00913814
0.250059
0.0124522
0.244866
0.017013
0.234477
0.0347888
0.216459
0.0557057
-0.193182
0.21583
-0.0854491
0.238577
-0.0886234
0.263601
-0.0907446
0.286456
-0.0831061
0.308635
-0.0800222
0.329923
-0.0736397
0.349489
-0.0651995
0.367169
-0.0579919
0.383168
-0.0492228
0.397265
-0.0415401
0.409576
-0.0342185
0.420099
-0.0269461
0.428895
-0.0200798
0.436032
-0.0136636
0.441844
-0.00695317
0.445819
-0.000263285
0.448047
0.00724836
0.448259
0.0149727
0.446905
0.0240236
0.444275
0.0335679
0.441321
0.044556
0.439171
0.0545517
0.437768
0.0617679
0.435589
0.0606043
0.43104
0.0498266
0.424521
0.03865
0.417139
0.0343795
0.409321
0.0354733
0.400379
0.0394259
0.388886
0.0444701
0.373314
0.0499522
0.352724
0.0553841
0.327803
0.0600518
0.300605
0.0638858
0.272925
0.0684738
0.244358
0.0780539
0.213106
0.09446
0.17113
0.141529
0.119835
0.127512
-0.170814
-0.0891076
-0.146852
-0.0951841
-0.11779
-0.114285
-0.0879706
-0.120458
-0.056895
-0.126441
-0.0246025
-0.131145
0.00704201
-0.129382
0.0362658
-0.120803
0.0629172
-0.110109
0.087043
-0.0985331
0.108316
-0.0859107
0.127005
-0.0744555
0.143538
-0.0645662
0.158162
-0.0557934
0.171201
-0.048839
0.182881
-0.0430655
0.193499
-0.0386248
0.203234
-0.0351654
0.212317
-0.0327087
0.220886
-0.0307771
0.229051
-0.0294707
0.236878
-0.02829
0.244302
-0.0267965
0.250999
-0.0235471
0.256717
-0.0192991
0.26152
-0.0157472
0.265459
-0.012273
0.268587
-0.00903166
0.270936
-0.00598029
0.272577
-0.00308833
0.273539
-0.000294313
0.273844
0.00241718
0.273485
0.00511234
0.272444
0.00786307
0.270596
0.0109861
0.267565
0.0154832
0.262784
0.0217925
0.252954
0.0446124
0.23437
0.0742947
-0.189563
0.213047
-0.108934
0.236679
-0.112255
0.263103
-0.117168
0.286709
-0.106712
0.30987
-0.103183
0.332199
-0.0959686
0.352584
-0.0855844
0.371137
-0.0765452
0.38814
-0.0662256
0.402945
-0.0563455
0.415931
-0.0472038
0.427026
-0.0380415
0.4365
-0.0295539
0.444034
-0.0211971
0.449788
-0.012707
0.453777
-0.0042523
0.456273
0.00475172
0.457389
0.0138569
0.45698
0.0244323
0.45543
0.0351186
0.45276
0.0472257
0.44928
0.0580314
0.445086
0.0659613
0.439705
0.0659859
0.432709
0.0568216
0.424573
0.0467868
0.416292
0.0426599
0.408521
0.0432443
0.401382
0.0465658
0.394744
0.0511071
0.387951
0.0567469
0.379583
0.0637521
0.367411
0.0722248
0.349162
0.082135
0.324028
0.0936086
0.292848
0.109234
0.256245
0.131063
0.208912
0.188863
0.152409
0.184041
-0.166142
-0.112528
-0.14145
-0.119876
-0.111125
-0.14461
-0.0804443
-0.151138
-0.0486267
-0.158258
-0.0156822
-0.164089
0.0163945
-0.161459
0.0457023
-0.15011
0.0722436
-0.13665
0.0962006
-0.12249
0.117274
-0.106984
0.135827
-0.0930084
0.15236
-0.0810994
0.167089
-0.0705222
0.180333
-0.0620829
0.192358
-0.0550904
0.203342
-0.0496091
0.213471
-0.0452948
0.222942
-0.0421795
0.231893
-0.0397282
0.240416
-0.0379933
0.24855
-0.036424
0.256258
-0.034504
0.263259
-0.0305489
0.26929
-0.0253299
0.274383
-0.0208402
0.278579
-0.016469
0.28193
-0.0123827
0.284457
-0.00850771
0.286195
-0.00482707
0.287189
-0.00128887
0.287507
0.00209884
0.287156
0.00546319
0.286119
0.00889977
0.284373
0.0127319
0.281579
0.0182769
0.277203
0.0261675
0.268596
0.0532182
0.250608
0.0922838
-0.186617
0.211118
-0.133434
0.23606
-0.137198
0.263856
-0.144964
0.288656
-0.131512
0.312828
-0.127355
0.336507
-0.119647
0.35785
-0.106928
0.377669
-0.0963639
0.395659
-0.0842156
0.411701
-0.0723881
0.426026
-0.0615289
0.43845
-0.0504654
0.449195
-0.0402989
0.458255
-0.0302565
0.465501
-0.0199526
0.471289
-0.0100408
0.475226
0.000814532
0.477429
0.0116543
0.478053
0.023809
0.477034
0.0361368
0.474569
0.0496918
0.470914
0.0616859
0.465904
0.0709719
0.459186
0.0727044
0.450608
0.0653999
0.440729
0.0566658
0.430425
0.0529648
0.42025
0.0534192
0.410378
0.0564378
0.40093
0.0605555
0.39215
0.0655273
0.384127
0.0717751
0.376527
0.0798243
0.36782
0.0908428
0.354673
0.106756
0.332726
0.131183
0.299115
0.164677
0.249894
0.23809
0.189599
0.244369
-0.162229
-0.136916
-0.136715
-0.145389
-0.105073
-0.176253
-0.073242
-0.182969
-0.0404142
-0.191086
-0.00652851
-0.197975
0.0262987
-0.194286
0.0559988
-0.17981
0.0826732
-0.163325
0.10661
-0.146427
0.127569
-0.127943
0.145966
-0.111404
0.1624
-0.0975336
0.177135
-0.0852575
0.190478
-0.0754258
0.20269
-0.0673017
0.213934
-0.060853
0.224409
-0.0557699
0.234242
-0.0520128
0.243565
-0.049051
0.252469
-0.0468972
0.260975
-0.0449297
0.269027
-0.0425558
0.276438
-0.0379605
0.282874
-0.0317665
0.288325
-0.0262913
0.292884
-0.021028
0.296547
-0.0160456
0.299357
-0.0113176
0.301347
-0.00681692
0.30256
-0.00250237
0.303027
0.00163258
0.302753
0.00573664
0.301765
0.00988818
0.299922
0.0145741
0.296987
0.0212117
0.292282
0.0308717
0.283861
0.0616332
0.266295
0.109854
-0.184933
0.21076
-0.159261
0.236749
-0.163187
0.266109
-0.174324
0.292174
-0.157577
0.317589
-0.15277
0.342334
-0.144391
0.364825
-0.129419
0.385474
-0.117013
0.40448
-0.103222
0.421425
-0.0893333
0.436541
-0.0766443
0.449961
-0.0638857
0.461558
-0.0518963
0.471403
-0.040101
0.479564
-0.0281141
0.485881
-0.0163577
0.490515
-0.00381882
0.493446
0.00872303
0.494785
0.0224696
0.494592
0.0363297
0.493041
0.0512431
0.49021
0.064517
0.486097
0.0750841
0.480116
0.0786855
0.472091
0.073425
0.462425
0.0663316
0.451918
0.0634714
0.441087
0.0642497
0.430061
0.0674638
0.418795
0.0718221
0.407396
0.0769275
0.396098
0.0830731
0.385287
0.0906366
0.375308
0.100822
0.365878
0.116188
0.353886
0.143175
0.331924
0.186639
0.28959
0.280425
0.229515
0.304461
-0.159334
-0.162516
-0.132709
-0.172014
-0.0996039
-0.209358
-0.0664509
-0.216122
-0.0324034
-0.225133
0.00273287
-0.233111
0.0365563
-0.228109
0.0669486
-0.210203
0.0940026
-0.190379
0.11813
-0.170554
0.139071
-0.148883
0.157371
-0.129705
0.17371
-0.113872
0.188389
-0.0999359
0.201743
-0.08878
0.214057
-0.0796159
0.225507
-0.0723034
0.236236
-0.0664987
0.246379
-0.0621557
0.25603
-0.0587021
0.265262
-0.0561289
0.274087
-0.053755
0.282482
-0.0509506
0.290199
-0.0456774
0.297009
-0.0385762
0.302829
-0.0321119
0.307689
-0.0258872
0.311639
-0.0199967
0.314679
-0.0143574
0.316871
-0.00900943
0.31822
-0.00385173
0.31879
0.0010621
0.318595
0.00593141
0.317594
0.0108893
0.315744
0.0164227
0.312719
0.024237
0.307811
0.0357789
0.299383
0.070061
0.282345
0.126892
-0.183922
0.211084
-0.186423
0.2385
-0.190603
0.269537
-0.205361
0.296802
-0.184842
0.3235
-0.179468
0.349486
-0.170377
0.372987
-0.152919
0.394829
-0.138856
0.414642
-0.123035
0.432508
-0.107199
0.448659
-0.0927953
0.462937
-0.0781641
0.475421
-0.0643798
0.486235
-0.0509149
0.495325
-0.0372036
0.502663
-0.0236964
0.508308
-0.00946327
0.512231
0.00479974
0.514396
0.0203054
0.514894
0.0358319
0.513912
0.052225
0.51148
0.0669493
0.507609
0.0789546
0.502049
0.0842459
0.494502
0.0809728
0.485268
0.0755662
0.475055
0.0736841
0.464334
0.0749713
0.453191
0.0786077
0.441599
0.0834142
0.429437
0.0890894
0.416722
0.0957888
0.403464
0.103894
0.389998
0.114288
0.376963
0.129224
0.365026
0.155114
0.351276
0.200392
0.321675
0.310032
0.268324
0.35784
-0.157088
-0.18935
-0.129299
-0.199803
-0.0944762
-0.244181
-0.0597945
-0.250804
-0.0243011
-0.260627
0.0122128
-0.269625
0.0472685
-0.263165
0.0785615
-0.241496
0.106184
-0.218001
0.130641
-0.195011
0.151699
-0.169941
0.169964
-0.14797
0.186221
-0.130129
0.200815
-0.11453
0.214125
-0.102089
0.226497
-0.0919886
0.238049
-0.0838548
0.248964
-0.0774133
0.25934
-0.0725322
0.269274
-0.0686359
0.278796
-0.0656508
0.287952
-0.0629106
0.296675
-0.0596743
0.304762
-0.0537639
0.311942
-0.0457571
0.318131
-0.0383014
0.323346
-0.0311022
0.327619
-0.02427
0.33094
-0.0176788
0.333355
-0.0114237
0.334913
-0.00540992
0.335622
0.00035278
0.335519
0.00603409
0.334569
0.0118399
0.332668
0.0183235
0.329539
0.0273657
0.324441
0.0408759
0.315888
0.0786102
0.299369
0.143412
-0.183715
0.212248
-0.214956
0.241111
-0.219465
0.273847
-0.238098
0.3025
-0.213495
0.330659
-0.207626
0.357996
-0.197715
0.382708
-0.177631
0.405433
-0.16158
0.426345
-0.143947
0.445035
-0.12589
0.461886
-0.109646
0.476969
-0.0932473
0.490302
-0.0777133
0.501905
-0.0625178
0.51179
-0.0470877
0.519995
-0.0319021
0.526411
-0.0158788
0.53103
0.000180388
0.533905
0.0174303
0.535071
0.0346663
0.534686
0.0526099
0.532798
0.068837
0.529373
0.0823796
0.524228
0.0893911
0.517149
0.0880509
0.508329
0.0843869
0.498362
0.083651
0.487781
0.0855518
0.476731
0.089657
0.465139
0.095006
0.45294
0.10129
0.440031
0.108698
0.426237
0.117689
0.411387
0.129137
0.395522
0.145091
0.379305
0.171331
0.365012
0.214684
0.34457
0.330474
0.301192
0.40123
-0.155394
-0.21767
-0.126248
-0.228948
-0.0896414
-0.280787
-0.0533857
-0.287059
-0.016236
-0.297777
0.0218727
-0.307734
0.058413
-0.299705
0.0907753
-0.273858
0.119143
-0.246369
0.144096
-0.219964
0.165387
-0.191231
0.183715
-0.166298
0.199935
-0.146349
0.214453
-0.129049
0.227701
-0.115338
0.240038
-0.104325
0.251656
-0.0954724
0.262685
-0.088442
0.273236
-0.0830834
0.283401
-0.0788013
0.293217
-0.0754663
0.302647
-0.0723402
0.311677
-0.0687049
0.320112
-0.0621991
0.327679
-0.0533234
0.334216
-0.0448385
0.339781
-0.0366668
0.344347
-0.0288366
0.347961
-0.0212927
0.350619
-0.0140819
0.352355
-0.00714703
0.353212
-0.000504464
0.353186
0.00606007
0.352273
0.0127527
0.350369
0.0202265
0.347166
0.0305691
0.341891
0.0461505
0.333315
0.0871867
0.317392
0.159334
-0.183923
0.214067
-0.2451
0.244478
-0.249877
0.279106
-0.272725
0.309216
-0.243605
0.338666
-0.237076
0.367472
-0.22652
0.393352
-0.203511
0.417209
-0.185438
0.439101
-0.165839
0.458663
-0.145452
0.476363
-0.127345
0.492314
-0.109199
0.506351
-0.0917502
0.518671
-0.0748375
0.529417
-0.0578337
0.538332
-0.0408168
0.545534
-0.0230808
0.550913
-0.00519847
0.554589
0.013754
0.556514
0.0327413
0.556661
0.0524632
0.555279
0.0702197
0.552253
0.0854052
0.547485
0.0941597
0.540769
0.0947669
0.532217
0.0929389
0.522442
0.0934266
0.511925
0.0960697
0.500781
0.100801
0.489088
0.106699
0.476763
0.113615
0.463723
0.121738
0.449827
0.131586
0.434798
0.144166
0.41827
0.16162
0.3996
0.190003
0.381143
0.233143
0.362571
0.349053
0.326013
0.437812
-0.154224
-0.24737
-0.12361
-0.259562
-0.0850391
-0.319358
-0.046921
-0.325177
-0.00807644
-0.336621
0.0318796
-0.34769
0.0699723
-0.337798
0.103589
-0.307474
0.132872
-0.275652
0.158485
-0.245577
0.180126
-0.212872
0.198585
-0.184757
0.214832
-0.162595
0.229293
-0.14351
0.242466
-0.128511
0.254761
-0.11662
0.26637
-0.107082
0.277454
-0.0995252
0.288151
-0.0937805
0.298498
-0.089148
0.308506
-0.0854749
0.318221
-0.0820546
0.32756
-0.0780443
0.336327
-0.070966
0.344242
-0.0612388
0.351164
-0.0517606
0.35706
-0.042563
0.361969
-0.0337459
0.365865
-0.0251892
0.368775
-0.016992
0.370737
-0.00910971
0.371737
-0.00150454
0.371831
0.00596619
0.370974
0.0136094
0.36905
0.0221502
0.365753
0.0338663
0.360354
0.0515483
0.351767
0.095771
0.336417
0.174686
-0.184722
0.21644
-0.276819
0.248434
-0.28187
0.284992
-0.309283
0.316779
-0.275392
0.347843
-0.26814
0.37812
-0.256797
0.405147
-0.230538
0.430228
-0.210519
0.453152
-0.188763
0.473651
-0.165952
0.492138
-0.145832
0.508723
-0.125784
0.523554
-0.10658
0.536711
-0.0879946
0.548044
-0.069167
0.557728
-0.0505003
0.565641
-0.0309941
0.571795
-0.0113523
0.576102
0.00944681
0.578646
0.030197
0.57943
0.0516799
0.578501
0.0711487
0.575913
0.0879933
0.571561
0.0985107
0.565267
0.101061
0.557121
0.101084
0.547552
0.102995
0.537038
0.106583
0.525843
0.111995
0.513918
0.118624
0.501315
0.12622
0.487988
0.135065
0.473815
0.14576
0.45858
0.1594
0.44194
0.17826
0.422917
0.209026
0.401542
0.254517
0.380927
0.369668
0.346052
0.472696
-0.153349
-0.278742
-0.121223
-0.291689
-0.0805726
-0.360008
-0.0405168
-0.365233
0.000297559
-0.377435
0.0421369
-0.389529
0.0820064
-0.377668
0.117028
-0.342496
0.147392
-0.306016
0.173743
-0.271928
0.195872
-0.235001
0.214567
-0.203453
0.23091
-0.178938
0.245347
-0.157947
0.258455
-0.141619
0.270679
-0.128844
0.282254
-0.118656
0.293366
-0.110637
0.304114
-0.104528
0.314591
-0.0996249
0.324818
-0.0957024
0.334765
-0.0920011
0.344365
-0.0876447
0.353464
-0.080065
0.361731
-0.0695059
0.369006
-0.059035
0.375269
-0.0488258
0.380498
-0.038975
0.384707
-0.029399
0.387876
-0.0201608
0.390035
-0.0112688
0.391226
-0.00269623
0.391424
0.00576811
0.390629
0.0144039
0.388694
0.0240844
0.385344
0.0372164
0.37981
0.0570821
0.371236
0.104346
0.356525
0.189396
-0.185823
0.219341
-0.310337
0.253094
-0.315623
0.291692
-0.347881
0.325085
-0.308786
0.357762
-0.300816
0.389622
-0.288658
0.418152
-0.259068
0.444369
-0.236736
0.468365
-0.212759
0.489766
-0.187353
0.509147
-0.165213
0.526592
-0.143229
0.542039
-0.122027
0.555817
-0.101773
0.567918
-0.0812683
0.578284
-0.0608667
0.58685
-0.0395601
0.593628
-0.0181301
0.598596
0.00447945
0.601788
0.0270053
0.60317
0.0502974
0.602787
0.0715317
0.600645
0.0901361
0.596694
0.102461
0.590794
0.106962
0.583013
0.108865
0.573686
0.112323
0.563289
0.116981
0.552008
0.123276
0.53992
0.130713
0.52702
0.13912
0.513295
0.14879
0.4987
0.160356
0.483013
0.175088
0.466006
0.195268
0.447016
0.228017
0.424663
0.276872
0.40175
0.392587
0.36656
0.507904
-0.152809
-0.311756
-0.118953
-0.325544
-0.0761623
-0.402799
-0.0340057
-0.40739
0.00885645
-0.420298
0.0527511
-0.433424
0.0945782
-0.419495
0.131114
-0.379032
0.162666
-0.337568
0.189935
-0.299197
0.212655
-0.257721
0.231685
-0.222482
0.248157
-0.19541
0.262626
-0.172416
0.275687
-0.15468
0.287847
-0.141004
0.299353
-0.130162
0.31044
-0.121724
0.321237
-0.115326
0.331796
-0.110183
0.342159
-0.106065
0.352297
-0.10214
0.36218
-0.0975279
0.371584
-0.0894687
0.380193
-0.0781149
0.387822
-0.0666646
0.394424
-0.0554285
0.400001
-0.0445516
0.404493
-0.0338917
0.407945
-0.0236126
0.410338
-0.013663
0.411697
-0.00405521
0.412039
0.00542603
0.411295
0.0151475
0.409376
0.0260029
0.405961
0.0406315
0.400319
0.0627234
0.391819
0.112844
0.377758
0.203458
-0.187403
0.222637
-0.34557
0.258251
-0.351238
0.299009
-0.388638
0.334255
-0.344032
0.368685
-0.335245
0.402188
-0.322161
0.432137
-0.289017
0.459688
-0.264287
0.484748
-0.237818
0.507135
-0.20974
0.527352
-0.18543
0.545534
-0.161411
0.561796
-0.138289
0.576277
-0.116253
0.588992
-0.0939835
0.59995
-0.0718241
0.609178
-0.0487884
0.616631
-0.0255828
0.622227
-0.00111627
0.625943
0.0232894
0.627878
0.0483622
0.627969
0.0714409
0.626268
0.0918367
0.622778
0.105951
0.61737
0.112371
0.609967
0.116268
0.600935
0.121353
0.590646
0.12727
0.579343
0.134579
0.567117
0.142938
0.553973
0.152266
0.539886
0.162878
0.524801
0.175442
0.508561
0.191328
0.490944
0.212886
0.47159
0.24737
0.449062
0.299399
0.424908
0.416741
0.389599
0.543219
-0.152473
-0.346687
-0.116948
-0.361068
-0.0717883
-0.447959
-0.0274349
-0.451743
0.0176778
-0.465411
0.0638461
-0.479592
0.107652
-0.463301
0.145901
-0.41728
0.178765
-0.370432
0.207054
-0.327485
0.230463
-0.281131
0.249911
-0.241929
0.266626
-0.212125
0.281177
-0.186967
0.294217
-0.16772
0.306315
-0.153102
0.317752
-0.1416
0.328788
-0.132759
0.339568
-0.126106
0.350182
-0.120798
0.360646
-0.116528
0.370965
-0.112459
0.381066
-0.107629
0.390769
-0.0991714
0.399697
-0.0870432
0.407669
-0.0746359
0.414616
-0.0623763
0.420502
-0.0504369
0.425319
-0.0387087
0.429047
-0.0273415
0.431686
-0.016302
0.43325
-0.00561916
0.433721
0.00495482
0.433066
0.0158018
0.431151
0.0279171
0.427712
0.044071
0.421992
0.0684441
0.41353
0.121305
0.400161
0.216827
-0.189215
0.226396
-0.382751
0.263976
-0.388818
0.307034
-0.431695
0.344172
-0.38117
0.380386
-0.371459
0.41565
-0.357425
0.447147
-0.320514
0.476015
-0.293154
0.502307
-0.264111
0.525692
-0.233126
0.546875
-0.206613
0.565843
-0.18038
0.582817
-0.155262
0.597971
-0.131407
0.611229
-0.107241
0.622862
-0.0834572
0.632702
-0.0586284
0.640732
-0.0336129
0.646948
-0.00733232
0.651283
0.0189552
0.653728
0.0459174
0.65433
0.0708385
0.653093
0.0930746
0.650024
0.10902
0.645025
0.11737
0.638016
0.123278
0.629304
0.130066
0.619193
0.137382
0.607907
0.145866
0.595566
0.155279
0.582184
0.165649
0.567773
0.177289
0.552231
0.190984
0.53547
0.208089
0.517202
0.231155
0.497173
0.267401
0.474296
0.322278
0.449685
0.441358
0.414921
0.577996
-0.152497
-0.383404
-0.114933
-0.398633
-0.0673857
-0.495506
-0.0206536
-0.498475
0.0267826
-0.512847
0.0752934
-0.528103
0.121369
-0.509376
0.161416
-0.457327
0.195761
-0.404778
0.22517
-0.356894
0.249376
-0.305336
0.269313
-0.261866
0.286325
-0.229137
0.301
-0.201642
0.314049
-0.18077
0.326112
-0.165164
0.337486
-0.152974
0.348437
-0.143711
0.359183
-0.136851
0.369816
-0.131432
0.380353
-0.127065
0.390797
-0.122903
0.401113
-0.117945
0.411076
-0.109135
0.420306
-0.0962734
0.428603
-0.0829327
0.435886
-0.0696596
0.442114
-0.0566655
0.447244
-0.043839
0.451257
-0.0313548
0.454139
-0.0191839
0.455894
-0.00737438
0.456522
0.00432647
0.455957
0.0163661
0.454073
0.0298014
0.450602
0.0475409
0.444835
0.0742107
0.4365
0.129639
0.423797
0.22953
-0.191329
0.230616
-0.422038
0.270223
-0.428425
0.315695
-0.477167
0.354792
-0.420266
0.39294
-0.409607
0.430157
-0.394641
0.463185
-0.353543
0.493499
-0.323468
0.52115
-0.291762
0.545639
-0.257615
0.567712
-0.228686
0.587531
-0.200198
0.605139
-0.17287
0.62097
-0.147238
0.634976
-0.121248
0.647171
-0.0956525
0.657603
-0.0690603
0.666186
-0.0421958
0.672865
-0.0140105
0.677721
0.0140989
0.68071
0.0429287
0.681742
0.0698064
0.680958
0.0938584
0.678334
0.111643
0.67379
0.121914
0.66724
0.129828
0.658817
0.138488
0.6489
0.147299
0.637701
0.157064
0.625281
0.167698
0.611711
0.17922
0.596976
0.192024
0.58106
0.206901
0.56378
0.225368
0.544881
0.250055
0.524115
0.288166
0.500672
0.34572
0.475703
0.466327
0.441896
0.611805
-0.152606
-0.422127
-0.113155
-0.438084
-0.062946
-0.545715
-0.013724
-0.547697
0.0362092
-0.56278
0.0872949
-0.579189
0.135673
-0.557754
0.177708
-0.499363
0.21359
-0.440659
0.244272
-0.387577
0.269348
-0.330412
0.2899
-0.282418
0.307281
-0.246517
0.322146
-0.216507
0.335261
-0.193885
0.347288
-0.17719
0.358588
-0.164274
0.369483
-0.154606
0.380168
-0.147536
0.390773
-0.142037
0.401347
-0.137638
0.411909
-0.133465
0.4224
-0.128435
0.432598
-0.119333
0.442129
-0.105804
0.450732
-0.0915361
0.458338
-0.0772655
0.464878
-0.0632051
0.470321
-0.049282
0.474609
-0.0356435
0.477754
-0.022328
0.479737
-0.00935784
0.480508
0.0035552
0.48006
0.0168132
0.478224
0.0316374
0.474741
0.051024
0.468955
0.0799967
0.460718
0.137876
0.448724
0.241525
-0.193797
0.235246
-0.463487
0.276985
-0.470164
0.324974
-0.525156
0.366141
-0.461433
0.406408
-0.449874
0.445582
-0.433816
0.480318
-0.388279
0.512191
-0.355341
0.54114
-0.320711
0.566729
-0.283204
0.589799
-0.251755
0.610496
-0.220896
0.628976
-0.19135
0.645438
-0.1637
0.66003
-0.13584
0.672803
-0.108425
0.683775
-0.0800318
0.692895
-0.0513164
0.700192
-0.0213068
0.705522
0.00876855
0.70894
0.0395109
0.710473
0.0682735
0.710095
0.0942369
0.707896
0.113842
0.703769
0.126041
0.697633
0.135964
0.689587
0.146536
0.679893
0.156993
0.668765
0.168192
0.656303
0.180161
0.642578
0.192945
0.627582
0.207021
0.611255
0.223228
0.593487
0.243136
0.57403
0.269513
0.552607
0.309591
0.528439
0.369889
0.50302
0.491751
0.470178
0.644655
-0.152909
-0.463016
-0.11131
-0.479682
-0.0583924
-0.598633
-0.00653628
-0.599553
0.0460491
-0.615365
0.0998297
-0.63297
0.150714
-0.608639
0.194833
-0.543481
0.232424
-0.478251
0.264441
-0.419594
0.290521
-0.356491
0.31173
-0.303627
0.32954
-0.264328
0.344654
-0.231621
0.357868
-0.207099
0.369907
-0.189229
0.38115
-0.175516
0.391963
-0.16542
0.402579
-0.158152
0.413151
-0.152609
0.423728
-0.148216
0.434352
-0.144088
0.444995
-0.139078
0.455434
-0.129772
0.465218
-0.115588
0.474106
-0.100424
0.482019
-0.0851784
0.488873
-0.0700593
0.494624
-0.055034
0.499215
-0.0402346
0.502617
-0.0257307
0.5048
-0.0115405
0.505765
0.00258912
0.505424
0.0171547
0.503651
0.03341
0.500179
0.0544956
0.49439
0.0857853
0.486314
0.145951
0.475049
0.25279
-0.196472
0.240145
-0.50716
0.284215
-0.514234
0.334886
-0.575827
0.378289
-0.504836
0.420719
-0.492303
0.461931
-0.475028
0.498524
-0.424872
0.53201
-0.388827
0.562344
-0.351045
0.589167
-0.310027
0.613371
-0.27596
0.634927
-0.242451
0.654174
-0.210596
0.671364
-0.180891
0.686553
-0.151029
0.699919
-0.121791
0.711418
-0.0915312
0.721083
-0.0609813
0.728817
-0.0290409
0.734661
0.00292521
0.738522
0.0356502
0.740445
0.06635
0.740514
0.0941684
0.738722
0.115634
0.735053
0.12971
0.729319
0.141698
0.721622
0.154231
0.712179
0.166436
0.701157
0.179214
0.688703
0.192614
0.674842
0.206807
0.6596
0.222264
0.642921
0.239907
0.624689
0.261368
0.6047
0.289503
0.582625
0.331665
0.5578
0.394712
0.53184
0.517711
0.49979
0.676706
-0.153358
-0.50613
-0.109544
-0.523496
-0.0537541
-0.654423
0.000939472
-0.654247
0.0563064
-0.670732
0.112903
-0.689567
0.1665
-0.662236
0.212815
-0.589796
0.252248
-0.517683
0.285716
-0.453062
0.312854
-0.383629
0.334811
-0.325584
0.353145
-0.282662
0.368559
-0.247035
0.381917
-0.220457
0.394008
-0.20132
0.405221
-0.18673
0.415967
-0.176165
0.426505
-0.168689
0.437009
-0.163113
0.447581
-0.158788
0.458247
-0.154755
0.469012
-0.149843
0.479631
-0.140391
0.48965
-0.125607
0.498823
-0.109597
0.507023
-0.0933788
0.514191
-0.0772276
0.520233
-0.0610752
0.525113
-0.0451149
0.528777
-0.0293942
0.531206
-0.0139699
0.532339
0.00145596
0.532118
0.0173756
0.53043
0.0350975
0.52698
0.0579459
0.521249
0.0915163
0.513327
0.153873
0.50276
0.263358
-0.199462
0.245539
-0.553236
0.29205
-0.560745
0.345414
-0.629191
0.391281
-0.550702
0.435884
-0.536906
0.479367
-0.51851
0.517812
-0.463317
0.553015
-0.424031
0.584891
-0.382921
0.613025
-0.338161
0.638218
-0.301153
0.66081
-0.265043
0.680822
-0.230609
0.698729
-0.198797
0.714645
-0.166945
0.728544
-0.135689
0.740608
-0.103595
0.750756
-0.0711291
0.759012
-0.0372973
0.765264
-0.00332662
0.76954
0.0313749
0.771914
0.0639762
0.772322
0.0937598
0.770931
0.117025
0.767649
0.132992
0.76232
0.147027
0.755001
0.161551
0.74583
0.175607
0.734995
0.190049
0.722553
0.205057
0.708592
0.220767
0.693122
0.237734
0.676107
0.256922
0.657454
0.280022
0.636898
0.310059
0.61427
0.354294
0.588825
0.420158
0.562262
0.544278
0.530904
0.70807
-0.154003
-0.551589
-0.107806
-0.569693
-0.0489288
-0.7133
0.00867703
-0.711853
0.0670391
-0.729094
0.126656
-0.749183
0.183003
-0.718584
0.231751
-0.638543
0.273101
-0.559033
0.308168
-0.488129
0.336476
-0.411937
0.359267
-0.348375
0.378171
-0.301566
0.393941
-0.262805
0.407501
-0.234016
0.41965
-0.213469
0.430874
-0.197954
0.441547
-0.186839
0.452006
-0.179147
0.46244
-0.173547
0.472975
-0.169323
0.483663
-0.165443
0.494531
-0.160711
0.505321
-0.151181
0.515562
-0.135847
0.524971
-0.119006
0.533437
-0.101846
0.540879
-0.0846693
0.547225
-0.0674219
0.552379
-0.0502689
0.55632
-0.0333349
0.558965
-0.0166153
0.560303
0.000117097
0.560244
0.0174342
0.558619
0.0367217
0.555256
0.061309
0.549574
0.0971986
0.541885
0.161561
0.532023
0.273219
-0.20268
0.251287
-0.601844
0.300274
-0.609731
0.356703
-0.68562
0.404887
-0.598887
0.452011
-0.584029
0.497762
-0.564262
0.538314
-0.503869
0.575253
-0.460969
0.608714
-0.416382
0.638182
-0.367628
0.664652
-0.327624
0.688176
-0.288568
0.709128
-0.25156
0.727787
-0.217456
0.74433
-0.183488
0.75884
-0.1502
0.771409
-0.116164
0.78202
-0.08174
0.79068
-0.0459573
0.797374
-0.0100201
0.802089
0.0266598
0.804769
0.0612957
0.805556
0.0929728
0.80456
0.118021
0.801668
0.135884
0.796775
0.15192
0.789817
0.168509
0.780917
0.184507
0.770231
0.200734
0.757869
0.217418
0.743847
0.23479
0.728186
0.253395
0.710871
0.274237
0.6918
0.299092
0.670765
0.331094
0.647569
0.37749
0.621569
0.446157
0.594458
0.571388
0.56369
0.738838
-0.15475
-0.599519
-0.106046
-0.618396
-0.0439492
-0.775397
0.0167306
-0.772533
0.0782376
-0.790602
0.141049
-0.811994
0.200408
-0.777943
0.25164
-0.689775
0.29507
-0.602463
0.331801
-0.52486
0.361383
-0.441519
0.385095
-0.372087
0.404637
-0.321108
0.420838
-0.279006
0.434641
-0.247819
0.446911
-0.225739
0.458142
-0.209184
0.46878
-0.197477
0.479161
-0.189529
0.489543
-0.183929
0.500012
-0.179792
0.510715
-0.176146
0.521648
-0.171643
0.532586
-0.162119
0.543021
-0.146283
0.552638
-0.128623
0.561373
-0.11058
0.569082
-0.092379
0.575685
-0.0740241
0.581143
-0.0557271
0.585334
-0.0375263
0.588226
-0.0195071
0.589741
-0.00139815
0.589835
0.0173408
0.588347
0.0382089
0.585045
0.0646118
0.579488
0.102755
0.572008
0.169041
0.562862
0.282366
-0.206182
0.25741
-0.653072
0.309072
-0.661393
0.368556
-0.745104
0.419461
-0.649792
0.469032
-0.633599
0.517312
-0.612542
0.559886
-0.546442
0.598777
-0.49986
0.633936
-0.451542
0.664889
-0.398581
0.692538
-0.355273
0.717213
-0.313243
0.739045
-0.273393
0.758497
-0.236908
0.775679
-0.200669
0.79082
-0.165342
0.803886
-0.12923
0.814964
-0.0928173
0.8241
-0.0550932
0.831165
-0.0170854
0.836215
0.0216101
0.839263
0.0582478
0.840387
0.0918487
0.839735
0.118673
0.837231
0.138388
0.832698
0.156453
0.826097