/*--------------------------------*- C++ -*----------------------------------*\
| =========                 |                                                 |
| \\      /  F ield         | OpenFOAM: The Open Source CFD Toolbox           |
|  \\    /   O peration     | Version:  2312                                  |
|   \\  /    A nd           | Website:  www.openfoam.com                      |
|    \\/     M anipulation  |                                                 |
\*---------------------------------------------------------------------------*/
FoamFile
{
    version     2.0;
    format      ascii;
    arch        "LSB;label=32;scalar=64";
    class       volScalarField;
    location    "150";
    object      turbulenceProperties:k;
}
// * * * * * * * * * * * * * * * * * * * * * * * * * * * * * * * * * * * * * //

dimensions      [0 2 -2 0 0 0 0];

internalField   nonuniform List<scalar> 
10720
(
0.0189164
0.0220487
0.0260392
0.0314306
0.0377824
0.0458272
0.0560624
0.0686942
0.0846912
0.105099
0.131382
0.166324
0.213224
0.277773
0.36929
0.503921
0.707293
1.03162
1.55834
2.49801
4.17499
7.68744
15.3259
34.5617
43.6508
43.441
42.2974
42.241
42.5469
42.3461
41.3811
39.7437
37.4867
34.6448
31.1498
27.0474
21.6622
16.1849
5.27655
0.0161106
0.0138243
0.0112567
0.00904612
0.00695628
0.00507162
0.00357215
0.00272479
0.00310119
0.00433165
0.00644986
0.00963453
0.0142379
0.0207916
0.0299874
0.0429576
0.0616538
0.0896595
0.133595
0.205199
0.328636
0.546095
0.965874
1.76419
3.54037
7.19964
16.2415
32.7521
45.5395
50.8723
52.3556
52.5805
52.2575
51.5033
50.3562
48.8796
46.7225
44.2196
36.2956
0.00306145
0.0030462
0.00301223
0.00292694
0.00279474
0.00264165
0.00246036
0.0022561
0.00205329
0.00185295
0.00166459
0.00151301
0.00146011
0.00156125
0.00194453
0.0029342
0.00531171
0.0109062
0.0246061
0.0622285
0.163068
0.491042
1.32545
4.34367
9.08736
14.1631
19.0545
22.9579
24.6355
23.5615
20.5931
17.1635
14.2256
11.9472
10.2127
8.86314
7.92395
7.06277
7.77178
0.0030327
0.00298952
0.00290506
0.0027806
0.00260965
0.00238365
0.0021262
0.00188384
0.00164549
0.0014061
0.00118293
0.000990768
0.000827522
0.000688077
0.00056951
0.000469675
0.000385052
0.000313507
0.000250736
0.000193295
0.000136189
8.01005e-05
2.7858e-05
4.30183e-06
2.59677e-05
0.00179586
0.0100431
0.0772491
0.248924
0.475789
0.702055
0.898959
1.06331
1.20713
1.34131
1.47974
1.62626
1.95751
2.7265
0.00205524
0.00203679
0.00198885
0.00191641
0.00184043
0.00175667
0.00167162
0.00159484
0.00152857
0.00147646
0.0014367
0.00140969
0.00140014
0.00140535
0.00141654
0.00138817
0.00121844
0.00108681
0.000444419
0.00592478
0.00114863
0.00265245
0.00146153
0.0034506
0.0642731
0.280631
0.810056
1.99124
4.31371
7.81958
11.6648
14.3541
14.9887
14.0072
12.3821
10.7059
9.34801
7.84186
8.90687
0.00207235
0.00207069
0.00206547
0.00202956
0.0019635
0.00184917
0.00169547
0.00152683
0.00136946
0.00120151
0.00102266
0.000851084
0.000697602
0.000565134
0.000455962
0.000368265
0.000300329
0.000249102
0.000212111
0.000185792
0.000167889
0.000156553
0.000150683
0.000147987
0.000148557
0.000148103
0.000156783
9.03032e-05
0.000754693
0.00457586
0.0126007
0.0264817
0.0595067
0.122961
0.215248
0.326852
0.447243
0.530613
0.911632
0.00172761
0.00173127
0.00172259
0.00170792
0.00167833
0.00163432
0.00157947
0.00151115
0.00143311
0.00134682
0.00125448
0.00115806
0.00105797
0.000955038
0.000851266
0.000742442
0.000631033
0.000534585
0.000416149
0.000276214
7.6801e-06
0.00020031
0.000187496
0.00197645
0.0127262
0.0305013
0.0556915
0.0353231
0.0186415
0.0946339
0.629048
2.14914
4.81315
7.73675
9.65909
10.1833
9.92067
8.90979
9.71825
0.00170917
0.00168155
0.00163849
0.00158653
0.00152054
0.00143295
0.00133143
0.00122491
0.00111142
0.000987331
0.000861031
0.000743454
0.000639389
0.000549312
0.000473099
0.000409225
0.000356673
0.000313828
0.000279459
0.000251474
0.000228731
0.000209602
0.000192406
0.000174221
0.000155462
0.000139918
0.000128132
0.000120018
0.000108041
9.88752e-05
6.15283e-05
4.36908e-05
0.000362994
0.000597288
0.0024958
0.0126701
0.0405968
0.100662
0.363312
0.00130058
0.00129793
0.00128746
0.00126897
0.00124075
0.00120254
0.00115631
0.0011028
0.00104375
0.000982654
0.000921588
0.000862863
0.000808887
0.000761619
0.000721852
0.000689767
0.000657423
0.000618678
0.000575262
0.00053052
0.000386981
0.000212475
2.98055e-08
8.61159e-06
1.17387e-07
0
0
0.0128671
0.0204966
0.000144663
0.00676578
0.0450058
0.0599594
0.710924
2.60394
5.27238
7.53721
8.52435
9.87909
0.00129708
0.00128786
0.00126954
0.00124016
0.00119822
0.0011394
0.00106983
0.000995528
0.000915322
0.000827181
0.000735956
0.000646915
0.000563119
0.000485957
0.000416646
0.000355756
0.000303466
0.000259535
0.000223467
0.000194161
0.000170615
0.000151524
0.000135494
0.000120224
0.000104644
9.02157e-05
7.88464e-05
7.10687e-05
6.7994e-05
6.24319e-05
7.88844e-05
1.35083e-05
0.000130824
1.42469e-10
0.0014083
0.00274174
0.00102254
0.00323721
0.070653
0.00106382
0.00106816
0.00106757
0.00106346
0.0010529
0.00103584
0.00101302
0.000983625
0.000948237
0.000907815
0.000862735
0.000814035
0.000762891
0.000710217
0.000657017
0.000602793
0.000543899
0.000482473
0.000424085
0.000372295
0.000331743
0.000286976
0.00020239
0.000113629
1.39745e-06
6.46531e-06
4.05344e-06
3.21439e-07
0
3.85134e-06
0.000914834
0.013865
0.0647673
0.0487773
0.0936898
0.644176
2.84683
5.89815
8.86307
0.00105434
0.00104131
0.00102232
0.000996862
0.000963501
0.000920225
0.000871241
0.000818317
0.000759967
0.000695822
0.000628892
0.000562402
0.000498761
0.000439373
0.000385332
0.000337386
0.000295758
0.000260304
0.000230604
0.000205891
0.000185289
0.000167684
0.000151834
0.000135996
0.000119442
0.000103611
8.97762e-05
7.81909e-05
6.84762e-05
6.03598e-05
5.34668e-05
4.64719e-05
3.76346e-05
2.21403e-05
1.46173e-06
4.50299e-07
0.000176958
0.000749242
0.0081309
0.000861083
0.000864725
0.000865232
0.000862872
0.000855958
0.000844022
0.000827331
0.000805422
0.000778481
0.000747247
0.000712255
0.000674372
0.000634733
0.000594397
0.000554411
0.000515879
0.00048084
0.000448727
0.00041655
0.000382915
0.000349742
0.000321362
0.000293314
0.000257423
0.000197016
0.000123621
7.03222e-05
4.70025e-06
4.11967e-06
1.22907e-06
0
0
0
0.00943537
0.056841
0.0765145
0.214664
2.24152
6.31128
0.000854039
0.000844597
0.000830845
0.000811603
0.000786223
0.000754235
0.000718822
0.000679932
0.000636691
0.000589564
0.000540109
0.000490131
0.000441113
0.000394046
0.000349841
0.000309245
0.000272672
0.000240352
0.000212293
0.000188176
0.00016754
0.000149688
0.00013372
0.000118366
0.000102937
8.8269e-05
7.53675e-05
6.45277e-05
5.55251e-05
4.82458e-05
4.28303e-05
3.93802e-05
3.70746e-05
3.43142e-05
3.15478e-05
1.35694e-05
1.3256e-06
9.40268e-08
0.000287032
0.000713135
0.00071789
0.000720695
0.00072171
0.000719719
0.000714298
0.00070566
0.000693217
0.000676944
0.00065719
0.000633933
0.00060762
0.000578758
0.000547816
0.000515361
0.000482074
0.000447877
0.000411584
0.000374445
0.00033872
0.000306453
0.000279176
0.000258562
0.000240526
0.000223386
0.000194443
0.000161631
0.000118057
7.48847e-05
2.21738e-05
3.87923e-06
8.73191e-07
0
0
0
0.0173517
0.0313004
0.305384
3.11756
0.000705913
0.000697293
0.000685708
0.000669968
0.000649982
0.000625672
0.000599311
0.000570117
0.00053761
0.000502474
0.000465421
0.000427574
0.000389859
0.000352958
0.000317603
0.000284504
0.0002541
0.000226752
0.000202595
0.00018149
0.000163097
0.000146883
0.000132122
0.000117855
0.000103566
8.98729e-05
7.75593e-05
6.68537e-05
5.7533e-05
4.93922e-05
4.23783e-05
3.63511e-05
3.11452e-05
2.67201e-05
2.35913e-05
2.05687e-05
1.39023e-05
1.55159e-06
2.27615e-05
0.000594754
0.000599386
0.000602768
0.000604819
0.000604763
0.000602186
0.000597142
0.000589107
0.000578
0.000563916
0.000546814
0.000526931
0.00050461
0.000480203
0.000454245
0.000427173
0.000399526
0.00037232
0.000345802
0.000319818
0.000294625
0.000270957
0.000249772
0.000229964
0.000210465
0.000189537
0.000167348
0.00014874
0.000128914
0.000102301
7.25178e-05
1.85904e-05
2.90872e-06
5.64075e-10
0
0
0.00617085
0.0467205
0.960967
0.00058838
0.000581097
0.000571687
0.000558851
0.000543029
0.000524348
0.000504218
0.00048186
0.000457123
0.000430573
0.000402555
0.000373708
0.000344592
0.000315627
0.000287316
0.000260192
0.000234678
0.00021111
0.000189705
0.000170496
0.000153339
0.000137898
0.00012367
0.00011001
9.65527e-05
8.36896e-05
7.20616e-05
6.19227e-05
5.31447e-05
4.55764e-05
3.91855e-05
3.40185e-05
3.00642e-05
2.72709e-05
2.56164e-05
2.57257e-05
2.73039e-05
2.75347e-05
9.96805e-07
0.00050119
0.000505755
0.000509573
0.000512476
0.000513878
0.000513534
0.000511394
0.000507017
0.000500314
0.000491278
0.00047977
0.000465896
0.00044982
0.000431718
0.000411882
0.000390593
0.000368294
0.000345029
0.000320786
0.000296414
0.000273065
0.000251626
0.000232448
0.000214506
0.000195678
0.000175271
0.000154548
0.000136961
0.000123688
0.000113627
0.000104463
8.25627e-05
5.29454e-05
1.17376e-08
1.99564e-07
0
0
0.0135609
0.224872
0.000495349
0.000489006
0.000481129
0.000470472
0.000457732
0.0004432
0.00042749
0.000410076
0.000391051
0.000370745
0.000349334
0.000327206
0.00030465
0.000281888
0.000259292
0.000237248
0.000216082
0.000196136
0.000177629
0.000160671
0.000145231
0.000131102
0.000117936
0.000105302
9.29219e-05
8.10778e-05
7.02709e-05
6.07253e-05
5.23484e-05
4.50015e-05
3.86342e-05
3.32135e-05
2.86655e-05
2.50618e-05
2.23737e-05
2.17228e-05
2.11117e-05
3.47492e-05
1.3354e-05
0.000425402
0.000429703
0.000433565
0.00043678
0.000438897
0.000439775
0.000439271
0.000437088
0.000433064
0.000427174
0.000419242
0.000409292
0.00039738
0.000383582
0.000368098
0.000351159
0.000333003
0.00031402
0.00029459
0.000275041
0.000255899
0.000237587
0.00022038
0.00020381
0.000186436
0.000167397
0.000147746
0.000129792
0.000115401
0.000104683
9.73578e-05
9.17112e-05
8.54283e-05
6.2069e-05
4.04452e-06
2.10196e-07
0
0.0010961
0.0689315
0.000420155
0.000414653
0.000408048
0.000399154
0.000388781
0.000377311
0.000364847
0.000351097
0.000336303
0.000320623
0.000304103
0.000286994
0.000269451
0.000251571
0.000233558
0.000215683
0.000198188
0.000181338
0.000165366
0.000150404
0.000136474
0.000123486
0.000111231
9.94318e-05
8.79248e-05
7.69216e-05
6.68073e-05
5.77963e-05
4.98522e-05
4.28842e-05
3.6865e-05
3.18019e-05
2.76913e-05
2.45812e-05
2.23948e-05
2.20123e-05
2.15928e-05
3.01493e-05
3.64323e-05
0.000363514
0.000367535
0.000371311
0.00037463
0.000377174
0.000378822
0.000379458
0.000378804
0.000376738
0.000373206
0.000368031
0.000361193
0.000352682
0.000342518
0.000330793
0.000317644
0.000303247
0.000287909
0.000271702
0.000254901
0.000238144
0.000221974
0.000206607
0.000191685
0.000176172
0.000159312
0.000141765
0.000125261
0.000111205
9.97996e-05
9.07228e-05
8.4275e-05
7.99289e-05
8.1251e-05
6.53137e-05
3.25847e-06
2.34706e-09
0.000382902
0.0235881
0.000358806
0.000353972
0.000348371
0.000340917
0.000332392
0.000323169
0.000313161
0.000302201
0.000290571
0.000278322
0.000265473
0.000252166
0.000238464
0.000224368
0.000210018
0.000195572
0.000181179
0.000167054
0.000153377
0.000140307
0.000127913
0.000116168
0.000104941
9.40703e-05
8.34954e-05
7.3372e-05
6.40018e-05
5.55754e-05
4.80882e-05
4.14756e-05
3.57102e-05
3.0794e-05
2.67009e-05
2.34819e-05
2.11375e-05
2.04092e-05
2.0314e-05
2.56013e-05
4.01354e-05
0.000312375
0.000316089
0.000319684
0.000322956
0.000325665
0.000327725
0.000329046
0.000329375
0.000328605
0.000326674
0.000323419
0.000318795
0.000312758
0.000305272
0.000296389
0.000286186
0.000274767
0.000262369
0.000249157
0.000235342
0.000221301
0.000207447
0.000193925
0.000180516
0.000166549
0.000151505
0.000135854
0.000120963
0.000107979
9.70938e-05
8.78777e-05
8.03282e-05
7.42486e-05
7.15884e-05
7.66331e-05
5.81542e-05
1.78922e-06
6.08759e-05
0.00673431
0.000308175
0.000303917
0.000299117
0.000292836
0.00028578
0.00027826
0.000270134
0.000261313
0.000252077
0.000242429
0.000232355
0.000221926
0.000211166
0.000200044
0.000188595
0.000176924
0.000165121
0.000153336
0.000141707
0.000130366
0.000119402
0.000108826
9.85858e-05
8.86115e-05
7.88965e-05
6.95795e-05
6.08948e-05
5.30154e-05
4.59646e-05
3.97058e-05
3.42269e-05
2.95446e-05
2.56576e-05
2.26143e-05
2.04165e-05
1.96501e-05
1.96247e-05
2.35319e-05
3.68719e-05
0.000269769
0.000273166
0.000276537
0.000279682
0.00028242
0.000284704
0.000286432
0.000287397
0.000287516
0.000286715
0.000284859
0.000281877
0.000277729
0.000272359
0.000265769
0.000257986
0.000249066
0.000239179
0.00022846
0.000217012
0.000205114
0.000193179
0.000181337
0.000169435
0.000156999
0.000143653
0.000129747
0.00011636
0.000104494
9.43894e-05
8.57369e-05
7.83495e-05
7.21084e-05
6.71697e-05
6.52822e-05
7.81828e-05
2.50774e-05
2.01043e-06
0.00102332
0.000266007
0.000262261
0.000258108
0.000252785
0.000246906
0.000240699
0.000234016
0.000226872
0.000219465
0.000211795
0.000203829
0.000195613
0.000187127
0.000178311
0.000169179
0.000159762
0.000150102
0.000140304
0.00013047
0.000120701
0.000111073
0.000101633
9.23729e-05
8.32944e-05
7.44284e-05
6.58949e-05
5.78891e-05
5.0562e-05
4.39541e-05
3.80519e-05
3.28525e-05
2.83766e-05
2.46215e-05
2.16346e-05
1.9429e-05
1.8553e-05
1.84188e-05
2.17455e-05
3.30901e-05
0.000233983
0.000237066
0.0002402
0.000243161
0.000245837
0.000248206
0.000250143
0.0002515
0.000252205
0.000252178
0.000251311
0.000249537
0.000246792
0.000243016
0.00023818
0.000232293
0.000225389
0.000217549
0.000208926
0.000199579
0.000189658
0.000179513
0.000169257
0.000158787
0.000147786
0.00013599
0.000123659
0.000111643
0.000100805
9.14381e-05
8.33653e-05
7.64315e-05
7.05401e-05
6.59107e-05
6.09179e-05
6.61253e-05
6.83609e-05
5.6192e-08
0.000160364
0.000230609
0.000227307
0.000223696
0.000219151
0.000214221
0.000209043
0.000203502
0.000197663
0.000191677
0.000185528
0.000179187
0.000172663
0.000165932
0.000158924
0.000151618
0.000144022
0.000136138
0.000128017
0.00011973
0.000111353
0.000102962
9.46033e-05
8.62959e-05
7.80666e-05
6.99933e-05
6.2199e-05
5.48393e-05
4.80447e-05
4.18684e-05
3.63161e-05
3.13953e-05
2.7134e-05
2.35392e-05
2.06603e-05
1.85095e-05
1.7578e-05
1.73493e-05
2.00941e-05
2.97801e-05
0.000203712
0.000206508
0.000209391
0.000212148
0.000214718
0.000217073
0.000219107
0.000220694
0.000221775
0.000222281
0.000222111
0.000221202
0.000219499
0.000216933
0.000213481
0.000209114
0.000203843
0.000197701
0.000190828
0.000183234
0.000175006
0.000166418
0.000157592
0.000148467
0.000138812
0.000128445
0.000117567
0.000106842
9.69932e-05
8.83394e-05
8.08042e-05
7.42919e-05
6.87582e-05
6.43964e-05
6.07082e-05
5.62273e-05
8.0754e-05
1.84478e-06
0
0.000200697
0.000197765
0.000194617
0.000190713
0.000186551
0.00018219
0.000177557
0.000172747
0.000167868
0.0001629
0.000157811
0.000152605
0.000147241
0.000141645
0.00013579
0.000129648
0.000123212
0.000116498
0.000109544
0.000102402
9.51273e-05
8.77699e-05
8.03609e-05
7.29585e-05
6.56524e-05
5.85632e-05
5.18217e-05
4.55452e-05
3.97938e-05
3.45875e-05
2.99425e-05
2.58917e-05
2.24457e-05
1.9654e-05
1.75316e-05
1.65258e-05
1.62108e-05
1.84475e-05
2.67884e-05
0.000177947
0.000180481
0.000183114
0.000185667
0.000188096
0.00019038
0.000192427
0.000194131
0.000195435
0.000196285
0.000196596
0.000196308
0.000195381
0.000193739
0.000191347
0.00018817
0.000184201
0.000179448
0.000174012
0.000167902
0.000161153
0.000153952
0.000146425
0.000138542
0.000130137
0.000121076
0.000111524
0.000101996
9.30962e-05
8.51444e-05
7.81383e-05
7.20209e-05
6.68222e-05
6.24926e-05
6.00048e-05
5.3484e-05
7.11816e-05
2.38505e-05
3.98454e-07
0.00017526
0.000172654
0.000169889
0.000166522
0.000162984
0.000159281
0.000155379
0.000151389
0.000147381
0.000143335
0.000139223
0.000135036
0.000130733
0.000126248
0.000121538
0.000116572
0.000111316
0.000105776
9.99573e-05
9.38945e-05
8.76241e-05
8.11844e-05
7.4615e-05
6.79878e-05
6.14058e-05
5.49777e-05
4.88239e-05
4.30463e-05
3.77077e-05
3.28398e-05
2.84663e-05
2.4624e-05
2.13293e-05
1.86323e-05
1.65496e-05
1.54824e-05
1.50912e-05
1.68775e-05
2.40234e-05
0.000155902
0.000158191
0.000160585
0.000162942
0.000165207
0.000167392
0.000169395
0.000171135
0.000172563
0.000173635
0.000174272
0.000174434
0.000174065
0.000173107
0.000171524
0.000169277
0.000166348
0.000162725
0.000158473
0.000153606
0.000148123
0.000142131
0.000135766
0.000129018
0.000121757
0.00011389
0.000105544
9.71255e-05
8.9131e-05
8.1868e-05
7.539e-05
6.96708e-05
6.47794e-05
6.05993e-05
5.8134e-05
5.36583e-05
5.8871e-05
5.29598e-05
4.52324e-06
0.000153504
0.000151182
0.000148746
0.000145829
0.000142802
0.000139633
0.000136329
0.000132993
0.000129675
0.000126353
0.000123006
0.000119619
0.000116149
0.000112534
0.000108732
0.000104704
0.00010041
9.58387e-05
9.0982e-05
8.58498e-05
8.04694e-05
7.48712e-05
6.90875e-05
6.31831e-05
5.7268e-05
5.14627e-05
4.58668e-05
4.05682e-05
3.56303e-05
3.10928e-05
2.69856e-05
2.33479e-05
2.02011e-05
1.75951e-05
1.55479e-05
1.44217e-05
1.39612e-05
1.5376e-05
2.14643e-05
0.000136947
0.000139006
0.000141187
0.000143343
0.000145451
0.00014751
0.000149441
0.000151162
0.000152644
0.000153842
0.000154691
0.000155152
0.000155186
0.000154735
0.000153771
0.000152246
0.000150138
0.00014743
0.000144145
0.000140312
0.000135901
0.000130962
0.00012563
0.000119906
0.000113685
0.000106898
9.96466e-05
9.2249e-05
8.51118e-05
7.85197e-05
7.25631e-05
6.72512e-05
6.26452e-05
5.87373e-05
5.59e-05
5.34662e-05
5.17635e-05
5.97549e-05
2.53626e-05
0.000134805
0.000132732
0.000130577
0.000128044
0.000125431
0.000122708
0.000119892
0.000117085
0.000114317
0.000111572
0.000108827
0.000106066
0.00010325
0.000100321
9.72376e-05
9.39614e-05
9.04483e-05
8.66747e-05
8.26255e-05
7.82985e-05
7.36986e-05
6.88461e-05
6.37703e-05
5.85407e-05
5.32601e-05
4.80376e-05
4.29644e-05
3.81201e-05
3.35667e-05
2.93488e-05
2.55008e-05
2.20635e-05
1.90623e-05
1.65473e-05
1.45376e-05
1.33602e-05
1.28377e-05
1.39437e-05
1.91033e-05
0.000120576
0.000122428
0.000124407
0.000126378
0.000128325
0.000130254
0.000132085
0.000133757
0.000135241
0.000136499
0.000137477
0.000138144
0.000138464
0.000138391
0.000137888
0.00013692
0.000135456
0.000133475
0.000130973
0.000127989
0.000124481
0.000120456
0.000116029
0.000111215
0.000105929
0.000100115
9.3853e-05
8.73905e-05
8.10581e-05
7.5113e-05
6.96665e-05
6.4761e-05
6.04389e-05
5.68074e-05
5.37806e-05
5.21459e-05
4.88563e-05
5.47641e-05
4.32427e-05
0.000118662
0.000116809
0.000114899
0.000112692
0.00011042
0.000108068
0.000105656
0.000103274
0.000100949
9.86632e-05
9.63965e-05
9.4131e-05
9.183e-05
8.94444e-05
8.69334e-05
8.4258e-05
8.13773e-05
7.8262e-05
7.48865e-05
7.12405e-05
6.7323e-05
6.31389e-05
5.87068e-05
5.4092e-05
4.93936e-05
4.47099e-05
4.01258e-05
3.57118e-05
3.1527e-05
2.76178e-05
2.40218e-05
2.07799e-05
1.79221e-05
1.54966e-05
1.35242e-05
1.23013e-05
1.1723e-05
1.2583e-05
1.69443e-05
0.000106381
0.000108049
0.000109841
0.000111638
0.00011343
0.000115224
0.000116944
0.000118545
0.000119998
0.00012127
0.000122318
0.000123115
0.00012363
0.000123823
0.000123664
0.000123119
0.000122154
0.000120749
0.000118887
0.000116605
0.00011385
0.000110606
0.000106967
0.000102956
9.85037e-05
9.35587e-05
8.81835e-05
8.25713e-05
7.69886e-05
7.16622e-05
6.67124e-05
6.22049e-05
5.81742e-05
5.47735e-05
5.17937e-05
5.01513e-05
4.74237e-05
4.87219e-05
4.84916e-05
0.000104671
0.000103014
0.000101319
9.93871e-05
9.74029e-05
9.53586e-05
9.32815e-05
9.12506e-05
8.9284e-05
8.73667e-05
8.54785e-05
8.36038e-05
8.17124e-05
7.97571e-05
7.77023e-05
7.5509e-05
7.31386e-05
7.05624e-05
6.7751e-05
6.46845e-05
6.1351e-05
5.77535e-05
5.39023e-05
4.98478e-05
4.56781e-05
4.14912e-05
3.73635e-05
3.33552e-05
2.95209e-05
2.59075e-05
2.25545e-05
1.95021e-05
1.67849e-05
1.44473e-05
1.25134e-05
1.1252e-05
1.0624e-05
1.12891e-05
1.49717e-05
9.40294e-05
9.55307e-05
9.71548e-05
9.87884e-05
0.000100434
0.000102093
0.000103699
0.000105214
0.000106613
0.000107868
0.000108941
0.000109812
0.000110455
0.000110835
0.000110929
0.000110701
0.000110124
0.000109176
0.00010783
0.000106113
0.000103978
0.000101399
9.84402e-05
9.51285e-05
9.14124e-05
8.72403e-05
8.26569e-05
7.78135e-05
7.29237e-05
6.81823e-05
6.37126e-05
5.95916e-05
5.58591e-05
5.26585e-05
4.98311e-05
4.79765e-05
4.59557e-05
4.45602e-05
4.67091e-05
9.25047e-05
9.10189e-05
8.95106e-05
8.78145e-05
8.60749e-05
8.42914e-05
8.24938e-05
8.07505e-05
7.90753e-05
7.74536e-05
7.58721e-05
7.43117e-05
7.27441e-05
7.11299e-05
6.94368e-05
6.76319e-05
6.56761e-05
6.35397e-05
6.1194e-05
5.86157e-05
5.5788e-05
5.27013e-05
4.93608e-05
4.58089e-05
4.21257e-05
3.83972e-05
3.46908e-05
3.10611e-05
2.75573e-05
2.42254e-05
2.11056e-05
1.82372e-05
1.56567e-05
1.34052e-05
1.15103e-05
1.02171e-05
9.54729e-06
1.00635e-05
1.31787e-05
8.32493e-05
8.46011e-05
8.60701e-05
8.75549e-05
8.90629e-05
9.05901e-05
9.20825e-05
9.35024e-05
9.48344e-05
9.60497e-05
9.71201e-05
9.80262e-05
9.87486e-05
9.92558e-05
9.95282e-05
9.95363e-05
9.92538e-05
9.86579e-05
9.77217e-05
9.646e-05
9.48372e-05
9.28184e-05
9.04414e-05
8.77368e-05
8.46641e-05
8.11722e-05
7.72908e-05
7.31384e-05
6.88835e-05
6.46914e-05
6.068e-05
5.69316e-05
5.34943e-05
5.04871e-05
4.78257e-05
4.58258e-05
4.41212e-05
4.18024e-05
4.30899e-05
8.1889e-05
8.05572e-05
7.92126e-05
7.77178e-05
7.61867e-05
7.46258e-05
7.3061e-05
7.1557e-05
7.01212e-05
6.87407e-05
6.74031e-05
6.60936e-05
6.4785e-05
6.34452e-05
6.20442e-05
6.05489e-05
5.89278e-05
5.71524e-05
5.51924e-05
5.30228e-05
5.06246e-05
4.79824e-05
4.50936e-05
4.19923e-05
3.87473e-05
3.54364e-05
3.21162e-05
2.88378e-05
2.56448e-05
2.25805e-05
1.9684e-05
1.6993e-05
1.45447e-05
1.23774e-05
1.05221e-05
9.20308e-06
8.49732e-06
8.9057e-06
1.1558e-05
7.38152e-05
7.50317e-05
7.63594e-05
7.77096e-05
7.90852e-05
8.04883e-05
8.18672e-05
8.31918e-05
8.44456e-05
8.56084e-05
8.66524e-05
8.75656e-05
8.83273e-05
8.89168e-05
8.93147e-05
8.94944e-05
8.94342e-05
8.91102e-05
8.84991e-05
8.76039e-05
8.63988e-05
8.48483e-05
8.29637e-05
8.0781e-05
7.82639e-05
7.53651e-05
7.21025e-05
6.85667e-05
6.48886e-05
6.12072e-05
5.76299e-05
5.42404e-05
5.10891e-05
4.82775e-05
4.57647e-05
4.37198e-05
4.20466e-05
3.95925e-05
3.96202e-05
7.25981e-05
7.14077e-05
7.02059e-05
6.88853e-05
6.75339e-05
6.61623e-05
6.47947e-05
6.34884e-05
6.22494e-05
6.10658e-05
5.99284e-05
5.88219e-05
5.77227e-05
5.66006e-05
5.54309e-05
5.41866e-05
5.28377e-05
5.13571e-05
4.97159e-05
4.78896e-05
4.58567e-05
4.35977e-05
4.11043e-05
3.84016e-05
3.55485e-05
3.26129e-05
2.96487e-05
2.66952e-05
2.37926e-05
2.09811e-05
1.82972e-05
1.57765e-05
1.34564e-05
1.13716e-05
9.55613e-06
8.21648e-06
7.48104e-06
7.81404e-06
1.00961e-05
6.55377e-05
6.66325e-05
6.78317e-05
6.9059e-05
7.03119e-05
7.15975e-05
7.2867e-05
7.40951e-05
7.52693e-05
7.63692e-05
7.73743e-05
7.82729e-05
7.90489e-05
7.96855e-05
8.01643e-05
8.04667e-05
8.057e-05
8.04535e-05
8.00963e-05
7.94905e-05
7.86255e-05
7.74582e-05
7.59859e-05
7.42453e-05
7.22079e-05
6.98254e-05
6.71054e-05
6.41161e-05
6.0959e-05
5.7747e-05
5.45776e-05
5.15298e-05
4.86543e-05
4.60406e-05
4.36633e-05
4.16361e-05
3.98964e-05
3.74958e-05
3.66098e-05
6.44481e-05
6.33833e-05
6.23076e-05
6.11385e-05
5.99428e-05
5.87325e-05
5.75336e-05
5.63941e-05
5.53183e-05
5.42972e-05
5.3322e-05
5.23785e-05
5.14463e-05
5.05018e-05
4.9521e-05
4.84785e-05
4.73497e-05
4.61099e-05
4.47328e-05
4.3192e-05
4.14668e-05
3.95359e-05
3.73872e-05
3.50371e-05
3.25357e-05
2.99391e-05
2.72974e-05
2.46422e-05
2.20096e-05
1.94348e-05
1.69524e-05
1.45952e-05
1.2399e-05
1.03953e-05
8.6194e-06
7.26315e-06
6.50272e-06
6.79109e-06
8.78663e-06
5.82574e-05
5.92441e-05
6.0327e-05
6.14398e-05
6.25805e-05
6.37549e-05
6.49208e-05
6.6054e-05
6.71479e-05
6.81805e-05
6.91374e-05
7.00069e-05
7.07785e-05
7.14348e-05
7.19639e-05
7.23493e-05
7.25708e-05
7.26102e-05
7.24478e-05
7.20709e-05
7.14761e-05
7.06235e-05
6.94954e-05
6.8129e-05
6.64985e-05
6.45582e-05
6.23083e-05
5.97994e-05
5.71096e-05
5.43273e-05
5.1537e-05
4.88121e-05
4.62023e-05
4.37809e-05
4.15384e-05
3.95531e-05
3.77516e-05
3.53999e-05
3.39432e-05
5.72833e-05
5.63298e-05
5.53656e-05
5.43287e-05
5.32682e-05
5.21971e-05
5.11425e-05
5.01431e-05
4.92044e-05
4.83175e-05
4.74762e-05
4.66664e-05
4.58706e-05
4.50682e-05
4.42394e-05
4.3362e-05
4.24127e-05
4.13692e-05
4.02093e-05
3.89082e-05
3.74431e-05
3.57916e-05
3.39391e-05
3.1897e-05
2.9706e-05
2.74158e-05
2.50653e-05
2.26839e-05
2.03013e-05
1.79481e-05
1.56567e-05
1.34561e-05
1.13792e-05
9.45532e-06
7.71955e-06
6.34978e-06
5.56752e-06
5.83671e-06
7.61805e-06
5.18416e-05
5.27308e-05
5.37091e-05
5.47167e-05
5.57537e-05
5.68252e-05
5.7892e-05
5.89359e-05
5.99489e-05
6.09134e-05
6.18155e-05
6.26472e-05
6.33993e-05
6.4058e-05
6.46139e-05
6.50517e-05
6.53547e-05
6.55084e-05
6.54933e-05
6.52962e-05
6.49148e-05
6.43143e-05
6.34719e-05
6.24167e-05
6.11292e-05
5.95659e-05
5.77216e-05
5.56323e-05
5.33564e-05
5.09634e-05
4.8523e-05
4.61004e-05
4.37437e-05
4.15131e-05
3.94023e-05
3.74726e-05
3.56422e-05
3.33191e-05
3.15062e-05
5.09705e-05
5.0117e-05
4.92523e-05
4.83299e-05
4.73878e-05
4.64374e-05
4.55063e-05
4.46273e-05
4.3804e-05
4.30291e-05
4.22975e-05
4.15977e-05
4.09138e-05
4.02279e-05
3.95219e-05
3.87778e-05
3.79752e-05
3.70949e-05
3.6114e-05
3.50111e-05
3.3765e-05
3.23528e-05
3.07565e-05
2.89842e-05
2.70675e-05
2.50491e-05
2.29615e-05
2.08289e-05
1.86757e-05
1.65295e-05
1.44177e-05
1.23664e-05
1.04054e-05
8.56024e-06
6.86474e-06
5.48307e-06
4.67998e-06
4.95279e-06
6.58277e-06
4.61778e-05
4.69781e-05
4.78624e-05
4.87736e-05
4.97155e-05
5.0692e-05
5.16659e-05
5.26251e-05
5.35588e-05
5.44552e-05
5.52998e-05
5.60877e-05
5.68097e-05
5.74574e-05
5.80208e-05
5.84878e-05
5.88462e-05
5.90801e-05
5.91756e-05
5.91168e-05
5.89036e-05
5.85037e-05
5.78943e-05
5.70952e-05
5.60938e-05
5.48502e-05
5.33526e-05
5.16269e-05
4.9715e-05
4.76703e-05
4.55501e-05
4.34097e-05
4.12894e-05
3.92457e-05
3.72679e-05
3.54042e-05
3.3572e-05
3.12826e-05
2.92472e-05
4.5397e-05
4.46334e-05
4.38584e-05
4.30363e-05
4.21981e-05
4.13541e-05
4.05287e-05
3.97524e-05
3.9027e-05
3.83462e-05
3.77064e-05
3.70972e-05
3.65047e-05
3.59146e-05
3.53102e-05
3.46755e-05
3.3993e-05
3.32453e-05
3.2413e-05
3.14759e-05
3.04131e-05
2.92035e-05
2.78279e-05
2.62898e-05
2.46147e-05
2.28376e-05
2.09858e-05
1.9079e-05
1.71371e-05
1.51833e-05
1.32409e-05
1.13326e-05
9.48445e-06
7.71789e-06
6.06337e-06
4.67e-06
3.84362e-06
4.14098e-06
5.67207e-06
4.11683e-05
4.18896e-05
4.26872e-05
4.35118e-05
4.43662e-05
4.52539e-05
4.61427e-05
4.70206e-05
4.7879e-05
4.87075e-05
4.94943e-05
5.02343e-05
5.09219e-05
5.15486e-05
5.21068e-05
5.25872e-05
5.29782e-05
5.32673e-05
5.34423e-05
5.34878e-05
5.34034e-05
5.31621e-05
5.27395e-05
5.21521e-05
5.13868e-05
5.0409e-05
4.92052e-05
4.77919e-05
4.61983e-05
4.44632e-05
4.26321e-05
4.07515e-05
3.88556e-05
3.69882e-05
3.51461e-05
3.33539e-05
3.15421e-05
2.93024e-05
2.71386e-05
4.04681e-05
3.97856e-05
3.90909e-05
3.83566e-05
3.76101e-05
3.68595e-05
3.61261e-05
3.54382e-05
3.47964e-05
3.41959e-05
3.36335e-05
3.30997e-05
3.25833e-05
3.20713e-05
3.15505e-05
3.10058e-05
3.04223e-05
2.97845e-05
2.90753e-05
2.82763e-05
2.73686e-05
2.63308e-05
2.51441e-05
2.38088e-05
2.23445e-05
2.07818e-05
1.91412e-05
1.74389e-05
1.56906e-05
1.39151e-05
1.21324e-05
1.03608e-05
8.62285e-06
6.93536e-06
5.32374e-06
3.91822e-06
3.06183e-06
3.40499e-06
4.8794e-06
3.67309e-05
3.73813e-05
3.81002e-05
3.88461e-05
3.96206e-05
4.04263e-05
4.12361e-05
4.20378e-05
4.28254e-05
4.35884e-05
4.4318e-05
4.50093e-05
4.56578e-05
4.62563e-05
4.68001e-05
4.72795e-05
4.76874e-05
4.80122e-05
4.82427e-05
4.83646e-05
4.8378e-05
4.82596e-05
4.79864e-05
4.7569e-05
4.69974e-05
4.62406e-05
4.52841e-05
4.41365e-05
4.28176e-05
4.13554e-05
3.97838e-05
3.81394e-05
3.6452e-05
3.47552e-05
3.30452e-05
3.13354e-05
2.95622e-05
2.7391e-05
2.51717e-05
3.61032e-05
3.54928e-05
3.48706e-05
3.42138e-05
3.35484e-05
3.28797e-05
3.22271e-05
3.16156e-05
3.1046e-05
3.05138e-05
3.00165e-05
2.95471e-05
2.90946e-05
2.86475e-05
2.81954e-05
2.77249e-05
2.72234e-05
2.66773e-05
2.60707e-05
2.5387e-05
2.46094e-05
2.37172e-05
2.26922e-05
2.15328e-05
2.0254e-05
1.88797e-05
1.74279e-05
1.591e-05
1.43385e-05
1.27283e-05
1.10957e-05
9.45568e-06
7.82614e-06
6.21999e-06
4.65516e-06
3.2373e-06
2.33752e-06
2.75001e-06
4.19952e-06
3.27953e-05
3.3381e-05
3.40293e-05
3.47032e-05
3.54046e-05
3.61357e-05
3.68717e-05
3.76028e-05
3.83238e-05
3.90244e-05
3.96978e-05
4.034e-05
4.09472e-05
4.15139e-05
4.2036e-05
4.2507e-05
4.29191e-05
4.3263e-05
4.35292e-05
4.37059e-05
4.37916e-05
4.37672e-05
4.36118e-05
4.33304e-05
4.2915e-05
4.23394e-05
4.15889e-05
4.06655e-05
3.95824e-05
3.83581e-05
3.70171e-05
3.55877e-05
3.40918e-05
3.25568e-05
3.09767e-05
2.93587e-05
2.76386e-05
2.55486e-05
2.33354e-05
3.22322e-05
3.1686e-05
3.11289e-05
3.05417e-05
2.99476e-05
2.93513e-05
2.87698e-05
2.82251e-05
2.77181e-05
2.72447e-05
2.68039e-05
2.63878e-05
2.59887e-05
2.55972e-05
2.52029e-05
2.47944e-05
2.43609e-05
2.38905e-05
2.33695e-05
2.27827e-05
2.21147e-05
2.13468e-05
2.04604e-05
1.94523e-05
1.83354e-05
1.71277e-05
1.58442e-05
1.44927e-05
1.30826e-05
1.16257e-05
1.01346e-05
8.62143e-06
7.09959e-06
5.5781e-06
4.06658e-06
2.63921e-06
1.67207e-06
2.18546e-06
3.62783e-06
2.92998e-05
2.98275e-05
3.04114e-05
3.102e-05
3.16545e-05
3.2317e-05
3.29853e-05
3.36509e-05
3.43092e-05
3.49508e-05
3.55704e-05
3.61644e-05
3.67298e-05
3.72624e-05
3.77588e-05
3.82136e-05
3.86205e-05
3.89717e-05
3.92599e-05
3.94742e-05
3.96118e-05
3.96576e-05
3.95921e-05
3.94175e-05
3.91271e-05
3.8699e-05
3.81177e-05
3.73826e-05
3.64999e-05
3.54813e-05
3.43433e-05
3.31063e-05
3.17871e-05
3.04038e-05
2.89512e-05
2.74282e-05
2.57786e-05
2.37846e-05
2.16193e-05
2.87947e-05
2.83062e-05
2.78072e-05
2.72821e-05
2.67516e-05
2.62194e-05
2.57008e-05
2.52149e-05
2.47626e-05
2.43403e-05
2.39475e-05
2.35782e-05
2.32248e-05
2.28794e-05
2.25335e-05
2.21772e-05
2.18011e-05
2.13945e-05
2.09451e-05
2.04402e-05
1.98651e-05
1.92024e-05
1.84349e-05
1.75583e-05
1.65819e-05
1.55215e-05
1.43874e-05
1.31858e-05
1.19231e-05
1.06084e-05
9.25108e-06
7.86029e-06
6.44631e-06
5.01448e-06
3.56678e-06
2.14127e-06
1.06867e-06
1.72671e-06
3.16089e-06
2.61917e-05
2.66668e-05
2.71925e-05
2.77419e-05
2.83153e-05
2.89151e-05
2.95214e-05
3.01265e-05
3.07263e-05
3.13129e-05
3.18813e-05
3.24287e-05
3.29525e-05
3.34496e-05
3.39172e-05
3.43515e-05
3.47469e-05
3.50974e-05
3.53961e-05