/*--------------------------------*- C++ -*----------------------------------*\
| =========                 |                                                 |
| \\      /  F ield         | OpenFOAM: The Open Source CFD Toolbox           |
|  \\    /   O peration     | Version:  2312                                  |
|   \\  /    A nd           | Website:  www.openfoam.com                      |
|    \\/     M anipulation  |                                                 |
\*---------------------------------------------------------------------------*/
FoamFile
{
    version     2.0;
    format      ascii;
    arch        "LSB;label=32;scalar=64";
    class       volSymmTensorField;
    location    "150";
    object      turbulenceProperties:R;
}
// * * * * * * * * * * * * * * * * * * * * * * * * * * * * * * * * * * * * * //

dimensions      [0 2 -2 0 0 0 0];

internalField   nonuniform List<symmTensor> 
10720
(
(0.0137352 0.00283523 -1.6674e-21 0.0113958 -4.20121e-20 0.0127019)
(0.0163881 0.00337491 1.3108e-21 0.0129424 4.6671e-20 0.0147668)
(0.0199986 0.00392782 1.11447e-20 0.014578 4.72617e-20 0.0175018)
(0.0249236 0.00464546 6.05609e-20 0.0167992 4.61349e-19 0.0211383)
(0.0310023 0.0053283 -2.39792e-19 0.0191649 -9.44391e-19 0.0253976)
(0.0389642 0.00582076 -2.9331e-19 0.0218231 -5.95344e-19 0.0308671)
(0.0492839 0.00609109 1.03752e-19 0.0250614 9.38473e-21 0.0377793)
(0.0621934 0.00581012 5.80587e-20 0.0289011 9.18011e-20 0.0462938)
(0.078509 0.0046208 1.55799e-19 0.03376 -1.25849e-19 0.0571133)
(0.0990434 0.00226246 -2.45992e-20 0.0402868 -2.46801e-20 0.0708671)
(0.124907 -0.00178587 2.87472e-18 0.0492816 1.16389e-18 0.0885766)
(0.158391 -0.0080934 -6.9054e-19 0.06216 -5.30359e-19 0.112096)
(0.202152 -0.0175313 1.41299e-18 0.0806649 -2.12109e-18 0.143631)
(0.260842 -0.0316236 6.8947e-19 0.107687 1.49218e-18 0.187017)
(0.342034 -0.0528756 1.10763e-18 0.148025 -1.96372e-18 0.248522)
(0.458824 -0.0855651 3.98605e-19 0.210056 6.93474e-18 0.338962)
(0.631188 -0.137145 3.47981e-17 0.307778 1.82411e-17 0.475619)
(0.900386 -0.22196 -9.26104e-18 0.469456 1.29037e-17 0.693404)
(1.32744 -0.364369 -3.91428e-18 0.742181 -6.18937e-17 1.04705)
(2.07432 -0.623734 2.57552e-18 1.24431 -3.46713e-19 1.67739)
(3.37538 -1.09845 -6.74384e-17 2.17306 -7.47642e-17 2.80153)
(6.04576 -2.10792 1.70508e-16 4.17637 4.20464e-16 5.15275)
(11.6842 -4.34881 -1.94739e-16 8.7027 -6.64268e-16 10.265)
(25.4026 -10.0839 3.69925e-16 20.5859 9.92872e-17 23.1349)
(30.8538 -12.9722 -2.21181e-16 27.2785 -1.06067e-17 29.1693)
(29.6566 -13.0135 2.02959e-17 28.2563 -1.182e-15 28.9691)
(28.1031 -12.6888 2.4944e-16 28.3119 -6.30198e-17 28.1798)
(27.4625 -12.6525 1.8861e-16 28.877 3.94092e-16 28.1423)
(27.1365 -12.7043 1.197e-15 29.6043 5.15955e-16 28.353)
(26.5252 -12.5885 1.15719e-15 29.9414 4.32786e-15 28.2256)
(25.4738 -12.2333 -2.06078e-15 29.6983 -1.67092e-15 27.5901)
(24.0609 -11.6729 -2.30098e-15 28.9202 -2.89914e-15 26.5063)
(22.3348 -10.9297 -9.11131e-16 27.6319 -3.90815e-15 25.0068)
(20.3292 -10.0206 -3.10719e-15 25.8471 -5.34597e-15 23.1133)
(18.0165 -8.93351 1.05028e-15 23.501 2.87095e-15 20.7822)
(15.4373 -7.69037 1.92767e-16 20.6136 2.21127e-15 18.0439)
(12.2053 -6.10425 -4.82378e-17 16.6642 4.07605e-18 14.455)
(9.05412 -4.53507 -1.94731e-15 12.5232 -9.33835e-17 10.7924)
(2.80721 -1.41397 -5.373e-16 4.23052 -2.51268e-15 3.51536)
(0.0113913 0.00237488 9.19825e-22 0.0100564 -3.03098e-21 0.0107735)
(0.00958272 0.00195654 -4.94895e-21 0.008795 5.17009e-21 0.0092709)
(0.00763696 0.00151379 -2.38729e-20 0.00734506 -1.68764e-20 0.00753134)
(0.00602198 0.00113677 2.55491e-20 0.00602111 -3.40151e-20 0.00604915)
(0.00457443 0.000803526 -3.03532e-20 0.00469175 -1.7717e-20 0.00464638)
(0.00332839 0.000533002 -1.28931e-19 0.00343564 1.5979e-19 0.00337921)
(0.00237152 0.000339896 4.78148e-20 0.00240369 1.2103e-19 0.00236908)
(0.00185719 0.000233542 -7.1722e-21 0.0017899 -1.5726e-19 0.0018025)
(0.00219442 0.000274751 8.59435e-20 0.00195002 -1.72714e-21 0.00205793)
(0.00317103 0.000399717 -7.3303e-20 0.00260516 -2.1447e-20 0.00288711)
(0.00485636 0.000661747 7.55458e-20 0.00373678 1.8185e-19 0.00430658)
(0.00743493 0.00117268 1.82648e-19 0.00539762 -8.65032e-20 0.00643651)
(0.0112219 0.00211527 -2.14051e-19 0.00773602 -5.05753e-20 0.00951795)
(0.0166583 0.00373801 3.27842e-20 0.0110166 8.58694e-20 0.0139083)
(0.0242659 0.00629199 8.83227e-19 0.0156457 1.58137e-19 0.0200632)
(0.0348179 0.0100752 8.75229e-19 0.0223523 -1.89307e-19 0.028745)
(0.0497298 0.0155376 3.9118e-19 0.0323295 5.8577e-19 0.0412482)
(0.0716587 0.0236258 2.62817e-19 0.0476864 5.97292e-19 0.0599739)
(0.105605 0.0362054 2.98866e-19 0.0722466 -1.68811e-19 0.0893386)
(0.160254 0.0567178 5.65814e-19 0.112941 2.59754e-20 0.137204)
(0.253448 0.0922425 -8.61421e-19 0.184116 -5.22109e-18 0.219707)
(0.415479 0.155354 -3.10169e-18 0.311621 -8.33642e-20 0.365089)
(0.723889 0.278215 2.98446e-18 0.562065 5.02246e-18 0.645793)
(1.29891 0.514324 2.06232e-18 1.04951 -4.71446e-19 1.17996)
(2.55566 1.04312 7.99601e-17 2.15649 -1.50745e-17 2.3686)
(5.09473 2.13828 -8.94087e-19 4.48742 -1.04841e-17 4.81713)
(11.2671 4.85029 1.52301e-19 10.347 5.61335e-18 10.8689)
(22.2764 9.81293 1.71108e-18 21.3093 -5.25681e-20 21.9186)
(30.3677 13.6608 8.51093e-19 30.2456 1.1526e-20 30.4657)
(33.2732 15.2495 3.72125e-16 34.4574 7.04105e-19 34.0138)
(33.6141 15.6565 -6.35833e-18 36.1108 -3.21641e-19 34.9863)
(33.1704 15.665 -3.0468e-17 36.8694 5.15069e-17 35.1213)
(32.4234 15.4942 -2.28598e-15 37.1971 -2.07598e-16 34.8944)
(31.4586 15.1851 -4.08985e-15 37.1652 -1.80644e-16 34.3827)
(30.3032 14.7536 3.65116e-15 36.7978 3.89029e-16 33.6114)
(28.9952 14.2217 -2.64899e-17 36.1421 1.08082e-16 32.622)
(27.316 13.4872 -2.42342e-18 34.9483 -4.79946e-16 31.1807)
(25.5008 12.6598 -1.90109e-16 33.4283 2.69682e-16 29.5102)
(20.4896 10.2392 -3.5708e-15 27.8982 1.05978e-16 24.2034)
(0.00223591 -0.000151118 -1.36351e-21 0.00186522 -4.14219e-21 0.00202175)
(0.00219487 -0.000178255 2.335e-21 0.00188826 5.52307e-21 0.00200927)
(0.00213101 -0.000201206 -1.15478e-23 0.00191084 3.84974e-23 0.00198261)
(0.0020339 -0.000209112 4.86778e-21 0.00189771 7.04247e-22 0.00192227)
(0.00190725 -0.000204851 3.73064e-21 0.00185053 2.92507e-20 0.0018317)
(0.00176982 -0.000192004 2.22084e-20 0.00178625 3.90332e-20 0.00172724)
(0.00162251 -0.000172159 -1.07416e-20 0.00169392 1.73718e-21 0.00160429)
(0.00146867 -0.000148531 -9.08102e-21 0.00157668 -2.43744e-21 0.00146685)
(0.00132316 -0.000125121 -5.19297e-20 0.00145273 -5.72076e-20 0.00133069)
(0.00118649 -0.000103987 -1.72119e-20 0.00132294 -5.78026e-21 0.00119648)
(0.00106268 -8.64102e-05 -1.51526e-19 0.00119587 -1.47635e-19 0.00107062)
(0.000965932 -7.49311e-05 -1.85507e-21 0.00109104 2.49309e-20 0.000969058)
(0.00093369 -7.61692e-05 -8.82619e-20 0.00105747 2.56314e-21 0.000929056)
(0.00100192 -9.79779e-05 7.815e-20 0.00113884 4.63926e-20 0.000981746)
(0.00126158 -0.000171968 -2.6967e-19 0.00143093 -7.81105e-20 0.00119656)
(0.0019672 -0.000405711 1.23515e-18 0.00215344 2.95919e-19 0.00174776)
(0.0037923 -0.00108937 -2.50676e-18 0.00374173 -2.15807e-18 0.0030894)
(0.00828515 -0.00274829 -4.77135e-18 0.00710855 -1.85896e-18 0.00641875)
(0.0193207 -0.00662063 -9.80378e-18 0.0149174 4.13729e-18 0.0149741)
(0.0493162 -0.0170431 2.09559e-18 0.0360632 -1.15026e-20 0.0390777)
(0.128632 -0.0451123 1.81044e-17 0.0926405 2.49049e-17 0.104864)
(0.382369 -0.137562 -3.9393e-17 0.278722 -1.03516e-16 0.320992)
(1.01192 -0.377546 1.77132e-19 0.763562 1.59511e-16 0.875419)
(3.23641 -1.25896 3.9049e-18 2.56444 -6.55282e-17 2.88649)
(6.6042 -2.67039 -0 5.50669 -0 6.06384)
(10.0491 -4.20277 -1.81791e-17 8.80348 4.19037e-16 9.4736)
(13.196 -5.69223 -5.92891e-17 12.1583 3.78969e-17 12.7547)
(15.5123 -6.88275 -8.8942e-17 15.0394 -3.7637e-16 15.3641)
(16.232 -7.38837 -9.16384e-16 16.5619 -2.1992e-15 16.4771)
(15.1409 -7.0469 3.5831e-16 16.2386 -7.15406e-15 15.7435)
(12.925 -6.12608 -1.09098e-16 14.5219 5.04574e-15 13.7393)
(10.5473 -5.06946 -3.33404e-16 12.3505 6.62203e-15 11.4292)
(8.5867 -4.16918 -2.17765e-15 10.4082 3.82078e-15 9.45638)
(7.11009 -3.47668 6.16736e-15 8.85002 1.39657e-14 7.93429)
(6.01094 -2.95439 -3.50857e-16 7.63197 -2.38625e-15 6.78241)
(5.18076 -2.55404 6.06726e-15 6.65836 -3.56911e-15 5.88717)
(4.59873 -2.27444 -2.1098e-16 5.98073 4.6182e-17 5.26843)
(4.16468 -2.04297 3.16242e-15 5.28436 6.75974e-16 4.67651)
(4.42256 -2.21538 6.09861e-15 5.8519 7.10643e-15 5.2691)
(0.00224066 -0.000113251 1.63312e-21 0.00181924 5.07964e-21 0.00200551)
(0.00222752 -7.32008e-05 -9.01741e-22 0.0017738 -2.36281e-20 0.00197771)
(0.00217567 -2.24856e-05 -1.51749e-20 0.00170974 -4.4411e-20 0.0019247)
(0.00208224 3.44876e-05 3.43048e-21 0.00163367 6.82158e-20 0.0018453)
(0.00193874 8.79562e-05 3.5378e-20 0.00154485 -3.31387e-20 0.00173571)
(0.00174082 0.000129683 -1.09505e-20 0.0014379 -5.18473e-20 0.00158859)
(0.00151392 0.000151329 4.42629e-20 0.00131935 -1.15938e-19 0.00141914)
(0.0013029 0.000153444 -9.14485e-20 0.00120521 -8.95329e-21 0.00125957)
(0.00110251 0.000139351 -5.04894e-20 0.00108773 1.09185e-19 0.00110074)
(0.000910229 0.00011471 -1.61699e-20 0.000962841 -3.82949e-21 0.000939126)
(0.000743413 8.58577e-05 -1.89377e-20 0.000834951 -5.15656e-20 0.000787493)
(0.000610387 6.04726e-05 3.60833e-21 0.000714017 -2.56601e-20 0.000657133)
(0.000504169 4.1144e-05 1.74399e-20 0.00060388 4.47786e-20 0.000546995)
(0.000417311 2.7535e-05 -1.54688e-20 0.000505391 -9.70372e-21 0.000453453)
(0.000345502 1.84964e-05 -8.1814e-21 0.000419197 -2.91642e-20 0.000374322)
(0.00028593 1.26748e-05 -2.91401e-20 0.00034539 -7.83021e-21 0.000308029)
(0.00023582 8.96018e-06 -4.47351e-21 0.000282147 2.2869e-23 0.000252137)
(0.000193518 6.52858e-06 -2.50172e-22 0.000228364 -2.29335e-21 0.000205131)
(0.000156301 4.72354e-06 -2.33007e-21 0.000181068 1.59385e-21 0.000164104)
(0.000121944 3.20804e-06 2.99028e-21 0.000137949 -1.00796e-21 0.000126696)
(8.71952e-05 1.80074e-06 -1.17282e-20 9.56409e-05 8.1502e-21 8.95423e-05)
(5.21312e-05 6.82595e-07 -9.88345e-22 5.51614e-05 2.00341e-22 5.29084e-05)
(1.84203e-05 8.64374e-08 -1.03028e-24 1.87906e-05 -1.16164e-22 1.85051e-05)
(2.86448e-06 2.10974e-09 1.459e-23 2.87307e-06 5.82634e-25 2.86611e-06)
(1.72017e-05 8.26572e-08 -4.50671e-22 1.7491e-05 3.89599e-23 1.72427e-05)
(0.000956062 0.000231886 -9.98079e-19 0.00161535 1.96286e-19 0.0010203)
(0.0053402 0.00161207 -7.88078e-20 0.00916644 -1.02559e-19 0.00557964)
(0.0419858 0.0137524 -5.3437e-21 0.0694346 -2.79588e-19 0.0430778)
(0.138369 0.0503626 -5.3017e-20 0.21871 -7.2041e-22 0.140769)
(0.270967 0.1097 2.83218e-18 0.404835 4.6149e-18 0.275776)
(0.408949 0.179431 3.1654e-19 0.575378 -3.91156e-18 0.419783)
(0.532194 0.244752 7.4904e-18 0.712238 -2.5064e-17 0.553486)
(0.634507 0.299031 2.51167e-15 0.822624 1.77697e-16 0.669489)
(0.721132 0.344464 2.35028e-15 0.921433 5.60174e-17 0.771693)
(0.798129 0.384682 -2.18098e-15 1.01854 -2.29502e-16 0.865959)
(0.875873 0.424732 2.10989e-15 1.12256 2.75608e-16 0.961053)
(0.952858 0.465216 -3.74364e-15 1.23853 -5.50743e-16 1.06112)
(1.15518 0.562524 -3.48091e-15 1.48225 -7.46837e-16 1.2776)
(1.60641 0.791499 -3.47698e-15 2.01768 -1.18281e-16 1.82891)
(0.00149947 -0.000115894 -5.8407e-22 0.00123138 -1.94491e-21 0.00137964)
(0.00145923 -0.000139082 -1.29864e-20 0.00124496 -2.97938e-20 0.0013694)
(0.00139073 -0.000155622 9.5325e-21 0.00124754 2.18286e-20 0.00133944)
(0.00130135 -0.000161486 1.3088e-20 0.00123741 2.42846e-20 0.00129407)
(0.00121013 -0.00015747 2.37694e-20 0.00122497 3.41771e-20 0.00124575)
(0.00111572 -0.000142976 -7.28742e-20 0.00120536 -1.25655e-19 0.00119227)
(0.00102631 -0.000119393 5.10237e-20 0.00117875 1.0059e-19 0.00113818)
(0.000950988 -9.02817e-05 6.77531e-20 0.00114954 6.06103e-20 0.00108915)
(0.000891398 -5.79542e-05 -3.99776e-21 0.00111886 8.13424e-21 0.00104688)
(0.00084987 -2.56714e-05 4.18317e-20 0.00108917 7.34393e-20 0.00101388)
(0.000824003 4.37364e-06 -9.02244e-20 0.00106078 -4.52216e-21 0.000988624)
(0.000812114 3.09114e-05 1.23475e-19 0.00103587 1.36113e-19 0.000971393)
(0.000814583 5.30741e-05 5.84013e-20 0.00102069 2.41592e-20 0.000965009)
(0.000827796 7.1598e-05 2.93662e-20 0.00101505 -2.79949e-20 0.00096786)
(0.000845452 8.62534e-05 8.48244e-20 0.00101365 8.39486e-20 0.000973982)
(0.00084063 9.22158e-05 -2.05143e-19 0.000984043 -2.09716e-19 0.000951661)
(0.000753381 7.72434e-05 4.02612e-20 0.000852776 5.91625e-20 0.000830731)
(0.000681928 6.55437e-05 2.75217e-19 0.000754018 8.02368e-20 0.000737674)
(0.000289508 1.19543e-05 1.50128e-20 0.000301063 1.1101e-20 0.000298268)
(0.00325467 0.00137192 -5.48943e-19 0.00445938 -3.68579e-20 0.00413551)
(0.000721996 9.48423e-05 4.61372e-20 0.00079943 -1.02728e-19 0.000775843)
(0.00154394 0.000532023 5.94975e-20 0.00195175 5.10413e-19 0.00180921)
(0.000853861 0.000329233 1.27553e-18 0.00108235 -2.78542e-19 0.00098685)
(0.0026317 -0.000978628 -3.39927e-18 0.0020531 -1.43389e-18 0.00221641)
(0.0476121 -0.0187428 1.53e-19 0.0389026 3.51705e-19 0.0420316)
(0.202248 -0.0829443 -3.48981e-17 0.174268 1.02631e-17 0.184746)
(0.568496 -0.241499 1.34292e-17 0.515692 5.14782e-18 0.535923)
(1.3651 -0.596298 -1.72319e-17 1.29559 -1.32076e-18 1.32179)
(2.8965 -1.29396 -4.53886e-16 2.86145 4.54447e-16 2.86948)
(5.14783 -2.34489 -8.59601e-16 5.28287 2.72592e-17 5.20847)
(7.52546 -3.49045 3.17152e-15 8.02682 -9.2949e-16 7.7773)
(9.06888 -4.27753 2.78194e-15 10.0614 1.47536e-15 9.57799)
(9.27907 -4.44066 -9.42899e-17 10.6927 3.738e-15 10.0056)
(8.51835 -4.12241 6.03044e-15 10.1477 -4.45536e-15 9.34836)
(7.42437 -3.62109 4.72696e-15 9.08095 -2.71014e-15 8.25882)
(6.36632 -3.1177 -8.89995e-15 7.9096 -3.17531e-15 7.13587)
(5.52562 -2.71408 -3.03981e-17 6.93765 -1.60653e-15 6.23275)
(4.74472 -2.30098 5.93894e-15 5.72377 -1.52874e-15 5.21522)
(5.18386 -2.56566 -1.29977e-14 6.67613 4.27785e-15 5.95375)
(0.00153346 -8.66111e-05 -2.89691e-21 0.00122108 -6.77109e-21 0.00139016)
(0.00154671 -5.50785e-05 -2.32257e-21 0.00120742 -1.70258e-21 0.00138727)
(0.00155143 -1.67298e-05 2.25409e-20 0.00119734 3.62374e-20 0.00138217)
(0.00152437 2.38181e-05 -1.38371e-20 0.0011785 -9.21169e-22 0.00135624)
(0.00146442 6.34382e-05 3.02611e-21 0.00115178 1.49256e-20 0.0013108)
(0.00135916 9.55627e-05 -5.33953e-21 0.00110584 5.41089e-20 0.00123334)
(0.0012192 0.000114962 -8.91084e-21 0.00104158 4.62605e-20 0.00113016)
(0.00106822 0.000120505 1.38343e-19 0.000967236 9.24889e-20 0.0010182)
(0.000928532 0.000116208 2.24869e-20 0.000896934 -2.56749e-20 0.000913464)
(0.000788246 0.000102287 6.78171e-20 0.000813356 8.56853e-21 0.000801411)
(0.000650826 8.23556e-05 -5.63447e-20 0.000712121 -3.40559e-20 0.000682376)
(0.000527777 6.19789e-05 -3.92546e-20 0.000605892 5.95227e-20 0.000568498)
(0.000423345 4.41448e-05 4.56128e-20 0.000505041 -2.25609e-20 0.000466819)
(0.000336914 2.97525e-05 3.41923e-20 0.000414169 -1.36892e-22 0.000379186)
(0.000268032 1.8925e-05 -2.70608e-20 0.000336931 2.45455e-20 0.000306962)
(0.00021416 1.10859e-05 -1.85707e-20 0.000273404 4.32257e-20 0.000248965)
(0.000173345 5.63125e-06 4.69493e-20 0.000223297 -2.75005e-20 0.000204015)
(0.000143148 1.86561e-06 4.2476e-20 0.000184941 -7.82377e-21 0.000170115)
(0.000121734 -7.82108e-07 1.65344e-20 0.000156885 -1.56822e-21 0.000145602)
(0.000106833 -2.79918e-06 -5.64379e-21 0.000136579 1.99451e-20 0.000128173)
(9.70454e-05 -4.47557e-06 8.06885e-20 0.000122413 8.43038e-21 0.000116319)
(9.13619e-05 -6.10458e-06 3.02122e-21 0.000112867 -1.40155e-20 0.000108877)
(8.93398e-05 -7.88666e-06 -2.51885e-22 0.000106883 -9.02709e-22 0.000105144)
(9.01248e-05 -9.6257e-06 -1.70499e-21 0.000102105 -9.66375e-21 0.000103744)
(9.37936e-05 -1.06934e-05 -1.2794e-21 9.85369e-05 6.9906e-21 0.000104783)
(9.69864e-05 -1.00961e-05 1.29742e-19 9.44389e-05 -6.88771e-21 0.000104781)
(0.000105655 -9.36999e-06 2.21513e-23 9.67013e-05 9.42965e-24 0.00011121)
(6.12793e-05 -2.55602e-06 -4.42981e-21 5.68325e-05 2.05127e-22 6.24947e-05)
(0.000567315 -7.98008e-05 -1.45527e-21 0.000341098 -1.2067e-22 0.000600972)
(0.00357753 -0.000272536 -2.78716e-18 0.00183935 -1.02424e-19 0.00373485)
(0.00993782 0.000582888 1.89744e-17 0.00499589 1.01839e-18 0.0102676)
(0.0200259 0.00529795 -4.80464e-19 0.0122941 -1.5156e-20 0.0206435)
(0.0414544 0.0168352 -2.86021e-16 0.0346441 -7.6662e-18 0.0429148)
(0.0809885 0.0366868 -2.36248e-19 0.0804005 1.35268e-17 0.0845322)
(0.137385 0.0643122 -1.46736e-19 0.148149 -1.25298e-18 0.144961)
(0.205734 0.0973208 3.38908e-17 0.229668 -8.30338e-17 0.218302)
(0.27796 0.13264 -1.65642e-16 0.318405 6.53254e-16 0.298121)
(0.343511 0.15882 2.23899e-15 0.36485 8.06092e-16 0.352863)
(0.568063 0.270885 4.57917e-15 0.639353 1.76595e-15 0.615848)
(0.00126691 -9.40676e-05 -2.53917e-21 0.00103981 -4.55824e-21 0.00114849)
(0.00125209 -0.000112205 -5.38534e-21 0.00105988 -8.70542e-21 0.00115057)
(0.00122292 -0.000127971 1.04457e-20 0.00107851 1.54343e-20 0.00114374)
(0.00118686 -0.000138349 1.41213e-20 0.00109598 1.42794e-20 0.001133)
(0.00113986 -0.000141909 1.63674e-21 0.00110463 -6.40467e-22 0.00111218)
(0.0010832 -0.000138724 -5.22712e-21 0.00110389 1.31668e-20 0.00108155)
(0.00102206 -0.00012947 1.06279e-19 0.00109321 1.06308e-19 0.00104367)
(0.000956517 -0.000115251 -9.96758e-20 0.00106898 -1.3115e-19 0.000996799)
(0.000889642 -9.77761e-05 2.72048e-20 0.00103324 7.04548e-21 0.000943346)
(0.000822922 -7.90377e-05 1.3153e-19 0.000986204 9.72946e-20 0.000884518)
(0.00075736 -6.05047e-05 1.03869e-19 0.000929892 1.0494e-19 0.000821705)
(0.000693456 -4.33727e-05 1.12513e-19 0.000866326 3.25852e-20 0.000756338)
(0.000630597 -2.84358e-05 -1.25395e-19 0.000796548 -9.48502e-20 0.000688799)
(0.000568256 -1.5961e-05 -7.89667e-20 0.000722033 -7.86784e-20 0.000619786)
(0.000506999 -6.11063e-06 8.53642e-21 0.000645024 -2.64545e-20 0.000550509)
(0.000443373 2.24643e-06 -1.932e-19 0.000562967 1.38183e-20 0.000478544)
(0.000379139 9.27877e-06 -5.28346e-20 0.000477207 -6.6914e-20 0.00040572)
(0.000324342 1.49309e-05 -2.92312e-19 0.000401411 -2.27742e-19 0.000343417)
(0.000258134 1.59003e-05 2.41102e-20 0.000305159 -3.2408e-20 0.000269005)
(0.00017677 9.75196e-06 4.96783e-21 0.000194705 -1.15377e-20 0.000180954)
(5.11579e-06 8.21335e-09 -3.34463e-23 5.12591e-06 -2.16337e-25 5.11849e-06)
(0.000131564 4.9925e-06 2.52277e-21 0.000136068 5.4463e-22 0.000132989)
(0.000123836 3.89225e-06 -8.03152e-21 0.000126418 -1.63658e-21 0.00012474)
(0.00125126 0.000344791 -2.11982e-19 0.00140006 2.33274e-19 0.0013016)
(0.00818482 0.00377238 6.09344e-19 0.00893633 4.09582e-20 0.00833134)
(0.0205991 0.00913192 6.40101e-18 0.020428 3.42306e-18 0.0199755)
(0.0392767 0.0165786 -1.31073e-18 0.0356303 5.53281e-19 0.0364762)
(0.0262864 0.0102725 1.70448e-18 0.0212681 1.07147e-19 0.0230918)
(0.0167776 0.00372748 3.43865e-17 0.00857254 1.72736e-18 0.011933)
(0.0709651 -0.0273607 -6.22232e-18 0.0559968 7.18556e-17 0.0623059)
(0.428224 -0.188526 -3.40128e-16 0.411959 -3.30819e-16 0.417911)
(1.40829 -0.644234 1.33596e-15 1.45918 -1.28232e-15 1.43082)
(3.07224 -1.43741 1.63903e-15 3.34662 -1.58465e-16 3.20744)
(4.82994 -2.29783 -4.31749e-16 5.48459 -5.91333e-15 5.15897)
(5.91593 -2.85043 -4.97465e-15 6.95872 -1.50495e-15 6.44352)
(6.1551 -2.98884 6.17976e-16 7.41978 3.24122e-15 6.79182)
(5.94226 -2.89996 -8.89851e-15 7.2809 1.32648e-15 6.6182)
(5.43609 -2.62424 -6.41986e-15 6.45165 7.98962e-16 5.93184)
(5.77226 -2.83149 7.71944e-15 7.15953 -4.94242e-15 6.50471)
(0.00126767 -7.1545e-05 -1.32987e-21 0.00101335 -1.06904e-21 0.00113732)
(0.00125732 -4.78443e-05 4.69588e-21 0.000986577 2.2264e-20 0.00111921)
(0.0012314 -1.86803e-05 1.43593e-20 0.000954055 3.0647e-20 0.00109152)
(0.00119284 1.19955e-05 1.64154e-20 0.000922873 -8.13631e-21 0.00105736)
(0.00113664 4.18197e-05 -3.24727e-20 0.00089063 -2.64567e-20 0.0010138)
(0.00105767 6.71656e-05 -4.29086e-21 0.000852858 -3.86681e-20 0.000955363)
(0.000963701 8.46798e-05 -5.15538e-20 0.000811603 -4.8752e-20 0.000887551)
(0.000864744 9.29964e-05 -7.4701e-20 0.000768385 -2.4186e-21 0.000816684)
(0.000762115 9.26043e-05 -1.94287e-20 0.000719478 -1.19352e-20 0.000741253)
(0.000656204 8.43847e-05 2.39099e-20 0.000659827 -1.64327e-20 0.000658629)
(0.000555378 7.1234e-05 2.22111e-20 0.000592331 5.0994e-20 0.000574354)
(0.000467008 5.6743e-05 4.45179e-20 0.000524142 -1.73801e-20 0.000495757)
(0.000392918 4.31995e-05 -3.78504e-20 0.000459782 -4.02057e-20 0.000426077)
(0.000331839 3.16534e-05 -6.05546e-21 0.000401095 1.50694e-20 0.000365691)
(0.00028231 2.2514e-05 3.5211e-20 0.000349359 -7.9604e-21 0.000314529)
(0.000242193 1.56001e-05 7.46237e-20 0.000304624 -5.90971e-21 0.000271632)
(0.000210045 1.05725e-05 -4.78375e-20 0.000266983 -1.19492e-20 0.000236318)
(0.00018433 6.97717e-06 -1.35657e-20 0.000235798 -1.97166e-20 0.000207528)
(0.000163973 4.37604e-06 -6.27819e-21 0.000210513 3.51269e-21 0.000184431)
(0.00014754 2.37206e-06 7.03034e-20 0.000189756 -2.67952e-20 0.000165651)
(0.000134295 7.12096e-07 1.21209e-20 0.000172771 -1.72909e-20 0.000150395)
(0.00012326 -8.18396e-07 -6.81853e-20 0.000158368 1.92807e-20 0.000137575)
(0.000113497 -2.34476e-06 -2.66364e-21 0.000145264 9.31701e-21 0.000126052)
(0.000103324 -3.76926e-06 -1.01765e-21 0.000131226 -6.10176e-21 0.000113892)
(9.29407e-05 -4.65703e-06 8.91573e-22 0.000116697 -7.33457e-23 0.000101285)
(8.44314e-05 -4.92648e-06 -5.18303e-20 0.000104711 -8.80567e-21 9.06945e-05)
(7.80499e-05 -4.8534e-06 -7.81164e-22 9.56311e-05 1.37332e-22 8.25838e-05)
(7.36968e-05 -4.70547e-06 1.12583e-20 8.94428e-05 1.5983e-22 7.68974e-05)
(6.69652e-05 -4.20408e-06 -4.08141e-22 8.0179e-05 -9.00217e-24 6.89369e-05)
(6.15523e-05 -4.06327e-06 2.35678e-22 7.34754e-05 -2.03721e-23 6.27226e-05)
(3.90903e-05 -2.09924e-06 -2.13667e-20 4.46123e-05 -5.15969e-22 3.9354e-05)
(2.79399e-05 -1.60777e-06 -6.0507e-22 3.15729e-05 -3.75784e-23 2.78687e-05)
(0.00021145 -5.66118e-05 8.71617e-21 0.000321113 -7.72708e-20 0.000193425)
(0.000401841 -2.87517e-05 1.83949e-17 0.000507091 1.83131e-18 0.000285644)
(0.00191955 0.000704929 1.03843e-18 0.00150333 1.15498e-19 0.00156872)
(0.00936977 0.00367458 -1.97392e-16 0.00744111 -3.5245e-17 0.00852929)
(0.0286496 0.0120122 1.30319e-15 0.0249537 1.9059e-16 0.0275903)
(0.0739738 0.0293334 4.65103e-17 0.0597104 -1.72655e-16 0.067639)
(0.238843 0.108741 2.71952e-16 0.240671 -1.51184e-15 0.247111)
(0.000951619 -7.17055e-05 -2.96853e-21 0.000781467 -4.25634e-21 0.000868074)
(0.00093571 -8.52157e-05 -5.52042e-21 0.000793361 -7.46809e-21 0.000866791)
(0.000910357 -9.66021e-05 1.87634e-20 0.000804586 2.39376e-20 0.000859982)
(0.00087706 -0.000103662 -7.96951e-20 0.000812748 -1.07001e-19 0.000848122)
(0.000836231 -0.000105594 1.97711e-20 0.000815453 2.97785e-20 0.00082982)
(0.000788525 -0.000102158 4.2992e-20 0.000811738 4.44504e-20 0.000804811)
(0.000737251 -9.35858e-05 -3.68765e-20 0.000800746 -5.92064e-20 0.000774627)
(0.000684367 -8.06756e-05 -2.38982e-20 0.000781606 3.95637e-21 0.000739635)
(0.00063188 -6.45307e-05 -1.47584e-19 0.000754672 -1.38583e-19 0.000700944)
(0.000582654 -4.67071e-05 -2.12118e-20 0.000721663 -5.53938e-20 0.000660991)
(0.000538042 -2.84962e-05 3.99362e-21 0.000684078 -1.29624e-20 0.000621056)
(0.00049917 -1.10627e-05 -7.42321e-20 0.000643862 -9.34549e-20 0.000582694)
(0.000466936 4.6489e-06 3.56073e-20 0.000603352 4.23732e-20 0.000547486)
(0.000441765 1.80365e-05 -1.45988e-19 0.000564812 -7.55099e-20 0.00051666)
(0.000423348 2.89672e-05 3.16906e-20 0.000529628 1.76488e-20 0.000490729)
(0.000410891 3.72369e-05 1.39456e-19 0.000498995 1.16366e-19 0.000469648)
(0.000398435 4.24433e-05 -1.91772e-19 0.000468596 -5.41469e-20 0.000447814)
(0.000381686 4.48282e-05 -3.552e-20 0.000434346 1.59099e-19 0.000421323)
(0.000361154 4.52971e-05 -1.20934e-20 0.000397855 -2.04303e-20 0.000391515)
(0.00033876 4.45084e-05 -1.48059e-19 0.000361572 -2.345e-20 0.000360708)
(0.000252427 2.73163e-05 1.0107e-19 0.000259811 6.21623e-20 0.000261723)
(0.000140704 9.06138e-06 1.121e-21 0.000141596 -1.66802e-21 0.000142651)
(1.98703e-08 1.77405e-13 4.99499e-28 1.98703e-08 1.40259e-28 1.98703e-08)
(5.74147e-06 1.35069e-08 2.52839e-23 5.73984e-06 8.52526e-24 5.74188e-06)
(7.82583e-08 2.31935e-12 -3.99273e-28 7.82578e-08 -3.82535e-29 7.82582e-08)
(0 0 0 0 -0 0)
(0 0 0 0 -0 0)
(0.00933659 0.00377082 -3.26971e-19 0.00776741 -4.84787e-19 0.00863022)
(0.0149518 0.00600477 -6.94283e-18 0.0123357 -4.02704e-19 0.0137057)
(9.72698e-05 3.43075e-06 4.09942e-22 9.5608e-05 2.28688e-23 9.64473e-05)
(0.00508419 0.0019334 -5.24176e-19 0.00394094 2.23267e-19 0.00450643)
(0.0356312 0.0122896 -9.87695e-17 0.0244512 -7.20447e-17 0.0299291)
(0.0572219 -0.00563984 -4.70802e-17 0.0230767 -1.42712e-16 0.0396202)
(0.483878 -0.213064 -3.3971e-15 0.465043 3.3243e-16 0.472927)
(1.66458 -0.77784 5.63281e-16 1.80887 1.8567e-15 1.73443)
(3.27826 -1.5638 -6.70487e-19 3.753 1.02487e-19 3.5135)
(4.6046 -2.22201 -1.47169e-16 5.44253 3.97278e-15 5.02728)
(5.25786 -2.52098 1.3774e-16 6.11651 1.78947e-16 5.67434)
(5.93788 -2.89526 -1.20116e-14 7.20051 2.55462e-15 6.61979)
(0.000960348 -5.532e-05 5.36236e-21 0.000768006 3.04507e-21 0.000865798)
(0.000961725 -3.78467e-05 -1.51885e-20 0.000754834 -2.35786e-20 0.00085916)
(0.000953399 -1.64777e-05 -9.05934e-21 0.000738764 1.48569e-20 0.000846925)
(0.000932476 6.48911e-06 4.09718e-20 0.000720781 2.68804e-20 0.000827064)
(0.000896907 2.9282e-05 -1.43547e-20 0.000700531 -7.63146e-20 0.000799001)
(0.000843652 4.93222e-05 -2.6898e-20 0.000675603 2.17719e-20 0.000759542)
(0.000778401 6.42384e-05 6.79609e-20 0.000648156 5.25095e-20 0.000713097)
(0.000707903 7.27396e-05 -2.33165e-20 0.000619488 -5.95557e-20 0.000663666)
(0.000633466 7.4725e-05 -5.37755e-20 0.000586904 -2.32884e-20 0.000610275)
(0.00055589 7.05966e-05 -4.01331e-20 0.000546905 1.58789e-20 0.000551567)
(0.000480512 6.21339e-05 4.54814e-20 0.000500653 8.19311e-22 0.000490748)
(0.000411375 5.16555e-05 -2.69806e-20 0.000451069 -2.42355e-20 0.000431386)
(0.000349977 4.09577e-05 -3.28165e-20 0.000400709 2.55164e-20 0.000375553)
(0.0002963 3.11279e-05 3.16945e-20 0.000351437 1.28563e-20 0.000324177)
(0.000250186 2.27774e-05 -4.76306e-20 0.000305047 8.3925e-21 0.000278058)
(0.000211094 1.60488e-05 -1.14372e-20 0.000262839 -3.3056e-20 0.000237579)
(0.000178446 1.08409e-05 1.32727e-20 0.000225642 1.69698e-20 0.000202845)
(0.000151587 6.89243e-06 -5.14057e-20 0.000193799 2.84864e-21 0.000173685)
(0.000129887 3.9062e-06 2.03201e-20 0.000167291 -5.45148e-22 0.000149755)
(0.000112491 1.57969e-06 -7.80101e-20 0.000145506 5.92497e-21 0.000130325)
(9.87109e-05 -3.21964e-07 -1.00554e-20 0.000127804 2.75527e-21 0.000114715)
(8.7752e-05 -1.98872e-06 6.24676e-20 0.000113236 4.7673e-21 0.00010206)
(7.88304e-05 -3.52753e-06 5.94562e-20 0.000100728 -1.31665e-20 9.14304e-05)
(7.06436e-05 -4.87487e-06 -5.00046e-20 8.84788e-05 3.77498e-21 8.1326e-05)
(6.24736e-05 -5.72552e-06 -6.67566e-22 7.57866e-05 3.7773e-22 7.10274e-05)
(5.49757e-05 -5.97961e-06 -4.77936e-20 6.39757e-05 1.31189e-20 6.148e-05)
(4.92471e-05 -5.87291e-06 -8.32899e-22 5.4426e-05 1.07091e-23 5.40198e-05)
(4.56714e-05 -5.52494e-06 -5.45579e-24 4.74729e-05 -2.85524e-22 4.8993e-05)
(4.49718e-05 -5.20366e-06 -2.68844e-23 4.38535e-05 6.62654e-24 4.71626e-05)
(4.23071e-05 -4.14046e-06 1.61183e-20 3.91913e-05 2.72828e-22 4.33653e-05)
(5.48707e-05 -5.94729e-06 6.603e-23 4.74641e-05 -6.89812e-22 5.5434e-05)
(9.109e-06 -1.85661e-07 -5.40478e-24 8.811e-06 -1.07853e-24 9.09657e-06)
(9.78002e-05 -1.54745e-05 -5.39347e-19 6.96286e-05 -4.50336e-20 9.42188e-05)
(9.49797e-11 -2.6057e-17 -9.42312e-31 9.49796e-11 -7.8947e-32 9.49796e-11)
(0.00119094 -0.000280513 9.32734e-20 0.000606938 1.0974e-20 0.00101873)
(0.00242281 -0.000495726 -4.46363e-17 0.00114006 -1.58795e-18 0.00192061)
(0.000958491 -0.00010198 1.93926e-18 0.000383685 -1.44269e-17 0.00070291)
(0.003116 0.000218483 1.45578e-18 0.001225 2.85955e-19 0.00213342)
(0.051015 0.0205754 -5.2462e-16 0.0417683 6.84557e-17 0.0485226)
(0.000778839 -5.87713e-05 5.98917e-21 0.000639963 6.78037e-21 0.000708844)
(0.000771338 -6.96742e-05 -4.47997e-21 0.000653204 -4.8632e-21 0.000711775)
(0.000757181 -7.93202e-05 -2.20511e-23 0.000666782 -4.05108e-22 0.000711168)
(0.000738649 -8.60802e-05 -2.25996e-21 0.000679944 2.00531e-21 0.000708323)
(0.000714823 -8.91738e-05 5.69282e-20 0.000689821 5.95668e-20 0.000701153)
(0.000686068 -8.84459e-05 -3.61363e-20 0.000696087 -4.54718e-20 0.00068953)
(0.000654379 -8.39006e-05 -2.59518e-21 0.000697582 1.12612e-20 0.000674085)
(0.00062032 -7.59324e-05 1.23168e-19 0.000692721 1.17486e-19 0.000654208)
(0.000584939 -6.52267e-05 -2.83237e-20 0.00068128 2.18479e-21 0.000630256)
(0.000549478 -5.28196e-05 -1.39211e-19 0.000663221 -9.2787e-20 0.00060293)
(0.000514338 -3.96465e-05 4.31783e-20 0.000638685 3.59776e-20 0.000572448)
(0.000480029 -2.65989e-05 -1.14829e-19 0.000608533 -3.64804e-20 0.000539507)
(0.000446949 -1.44921e-05 -4.2364e-20 0.000573917 -1.58241e-20 0.000504917)
(0.000415162 -3.84309e-06 -7.21893e-20 0.000536002 4.00631e-20 0.000469269)
(0.000384708 5.05801e-06 6.25094e-21 0.000496051 3.4654e-21 0.000433274)
(0.000354769 1.19637e-05 5.28614e-20 0.000454216 1.17552e-20 0.000396601)
(0.000322659 1.72622e-05 7.30696e-20 0.000407998 1.0743e-19 0.000357142)
(0.000289364 2.09758e-05 2.72573e-19 0.000359246 7.47169e-20 0.000316336)
(0.000257937 2.33393e-05 -1.08738e-19 0.000312398 -4.91291e-21 0.000277836)
(0.000230289 2.45721e-05 9.97652e-20 0.000270382 4.39354e-20 0.000243919)
(0.000209173 2.5403e-05 1.52082e-20 0.000236766 -4.48084e-20 0.000217546)
(0.000185231 2.34863e-05 -1.50616e-20 0.000200046 2.74188e-20 0.000188674)
(0.000134045 1.35802e-05 -5.29205e-20 0.000136931 -3.03784e-20 0.000133804)
(7.63008e-05 4.54807e-06 6.57336e-22 7.54563e-05 -7.7543e-22 7.55013e-05)
(9.31834e-07 6.91051e-10 1.99616e-25 9.31458e-07 -4.14466e-26 9.31606e-07)
(4.3165e-06 1.46894e-08 2.44432e-23 4.30442e-06 -7.62802e-24 4.30969e-06)
(2.70521e-06 5.81722e-09 -3.51637e-24 2.69957e-06 -1.27427e-24 2.70209e-06)
(2.1431e-07 3.61486e-11 -1.89586e-26 2.14275e-07 -9.76383e-28 2.14291e-07)
(0 0 0 0 0 0)
(2.56935e-06 4.34275e-09 -1.68436e-24 2.56581e-06 -6.74073e-24 2.56751e-06)