/*--------------------------------*- C++ -*----------------------------------*\
| =========                 |                                                 |
| \\      /  F ield         | OpenFOAM: The Open Source CFD Toolbox           |
|  \\    /   O peration     | Version:  2312                                  |
|   \\  /    A nd           | Website:  www.openfoam.com                      |
|    \\/     M anipulation  |                                                 |
\*---------------------------------------------------------------------------*/
FoamFile
{
    version     2.0;
    format      ascii;
    arch        "LSB;label=32;scalar=64";
    class       volSymmTensorField;
    location    "150";
    object      turbulenceProperties:devReff;
}
// * * * * * * * * * * * * * * * * * * * * * * * * * * * * * * * * * * * * * //

dimensions      [0 2 -2 0 0 0 0];

internalField   nonuniform List<symmTensor> 
10720
(
(0.00158106 0.00398738 -2.34497e-21 -0.00170895 -5.90844e-20 0.000127888)
(0.00228826 0.00457234 1.77587e-21 -0.00238001 6.323e-20 9.17448e-05)
(0.00343946 0.00511886 1.45241e-20 -0.0036249 6.1593e-20 0.000185442)
(0.0049826 0.00583055 7.60105e-20 -0.00521431 5.79042e-19 0.000231712)
(0.00704482 0.00645629 -2.90555e-19 -0.00729852 -1.14432e-18 0.000253696)
(0.00987282 0.00683098 -3.44215e-19 -0.0102433 -6.98668e-19 0.000370432)
(0.013585 0.00694829 1.18353e-19 -0.0140464 1.07054e-20 0.000461362)
(0.0182623 0.00647095 6.46622e-20 -0.0188166 1.02242e-19 0.000554296)
(0.0240674 0.00504397 1.70067e-19 -0.0247797 -1.37374e-19 0.000712304)
(0.0311099 0.00242894 -2.64092e-20 -0.0319702 -2.64961e-20 0.000860305)
(0.0395169 -0.00189108 3.04407e-18 -0.0405634 1.23246e-18 0.00104658)
(0.0497284 -0.00847151 -7.22801e-19 -0.0509988 -5.55137e-19 0.00127044)
(0.0622022 -0.0181739 1.46478e-18 -0.0637381 -2.19883e-18 0.00153591)
(0.0777988 -0.0325177 7.08962e-19 -0.079686 1.53437e-18 0.00188718)
(0.097883 -0.0540024 1.13124e-18 -0.100261 -2.00557e-18 0.00237758)
(0.124792 -0.0868987 4.04817e-19 -0.127854 7.04282e-18 0.00306165)
(0.161419 -0.138656 3.51814e-17 -0.165554 1.8442e-17 0.00413553)
(0.214219 -0.22361 -9.32991e-18 -0.219916 1.29997e-17 0.00569767)
(0.289931 -0.366118 -3.93307e-18 -0.298134 -6.21908e-17 0.00820332)
(0.41016 -0.625531 2.58294e-18 -0.422241 -3.47712e-19 0.0120818)
(0.593023 -1.10024 -6.75482e-17 -0.611255 -7.48859e-17 0.0182321)
(0.921551 -2.10963 1.70647e-16 -0.949364 4.20807e-16 0.0278136)
(1.46746 -4.3504 -1.9481e-16 -1.51515 -6.64511e-16 0.0476876)
(2.36179 -10.0854 3.69978e-16 -2.45556 9.93015e-17 0.0937722)
(1.75343 -12.9736 -2.21204e-16 -1.82221 -1.06078e-17 0.0687828)
(0.69602 -13.0148 2.02979e-17 -0.704448 -1.18212e-15 0.00842847)
(-0.0952067 -12.69 2.49464e-16 0.113666 -6.3026e-17 -0.0184591)
(-0.698172 -12.6537 1.88628e-16 0.716476 3.9413e-16 -0.0183038)
(-1.22819 -12.7055 1.19712e-15 1.23982 5.16004e-16 -0.0116275)
(-1.7057 -12.5897 1.15729e-15 1.71081 4.32827e-15 -0.00511192)
(-2.1138 -12.2344 -2.06097e-15 2.11111 -1.67108e-15 0.0026875)
(-2.43509 -11.674 -2.3012e-15 2.4246 -2.89942e-15 0.0104821)
(-2.65664 -10.9307 -9.1122e-16 2.64101 -3.90853e-15 0.0156336)
(-2.76758 -10.0216 -3.10751e-15 2.75079 -5.34651e-15 0.0167957)
(-2.75034 -8.93446 1.05039e-15 2.73472 2.87126e-15 0.0156262)
(-2.59457 -7.69124 1.92789e-16 2.58231 2.21152e-15 0.0122653)
(-2.23649 -6.10501 -4.82438e-17 2.22299 4.07656e-18 0.0134995)
(-1.73605 -4.53572 -1.94759e-15 1.73355 -9.33968e-17 0.00249517)
(-0.710648 -1.41429 -5.37422e-16 0.712985 -2.51325e-15 -0.00233702)
(0.000953224 0.00347817 1.34715e-21 -0.00100173 -4.43908e-21 4.85074e-05)
(0.000560824 0.00299383 -7.57272e-21 -0.000644514 7.91109e-21 8.369e-05)
(0.000214069 0.00244552 -3.85665e-20 -0.000257504 -2.72636e-20 4.34354e-05)
(-1.5095e-05 0.00195746 4.39943e-20 -1.65899e-05 -5.85723e-20 3.1685e-05)
(-0.00011748 0.00149631 -5.6523e-20 0.000100984 -3.29923e-20 1.64957e-05)
(-0.000108053 0.00109306 -2.64407e-19 0.000111893 3.27693e-19 -3.83999e-06)
(-2.2824e-05 0.000783126 1.10166e-19 5.12907e-05 2.78856e-19 -2.84667e-05)
(0.000105098 0.000603687 -1.85395e-20 -6.88401e-05 -4.06504e-19 -3.62582e-05)
(0.000286562 0.000620118 1.93976e-19 -0.000265066 -3.89818e-21 -2.14966e-05)
(0.000540593 0.000762843 -1.39896e-19 -0.000539341 -4.09307e-20 -1.2522e-06)
(0.000903229 0.00107415 1.22626e-19 -0.000914069 2.9518e-19 1.08397e-05)
(0.00142942 0.00165653 2.58009e-19 -0.00144848 -1.22194e-19 1.9056e-05)
(0.00219504 0.002684 -2.71603e-19 -0.00222804 -6.41736e-20 3.30042e-05)
(0.00328941 0.0043957 3.85525e-20 -0.00334491 1.00978e-19 5.55061e-05)
(0.00477932 0.00703544 9.87588e-19 -0.00485937 1.76822e-19 8.00476e-05)
(0.0066852 0.0108997 9.46852e-19 -0.00680055 -2.04799e-19 0.000115342)
(0.00912639 0.0164365 4.1381e-19 -0.00928053 6.19656e-19 0.000154143)
(0.0123723 0.0245931 2.73577e-19 -0.0125814 6.21747e-19 0.000209098)
(0.0170124 0.0372358 3.07372e-19 -0.0172954 -1.73615e-19 0.000283042)
(0.0239051 0.0578078 5.76688e-19 -0.024317 2.64746e-20 0.000411863)
(0.0347844 0.0933889 -8.72127e-19 -0.0354088 -5.28598e-18 0.00062443)
(0.0518129 0.156555 -3.12567e-18 -0.0528472 -8.40086e-20 0.00103432)
(0.080334 0.279469 2.99791e-18 -0.0822195 5.0451e-18 0.00188545)
(0.12309 0.515628 2.06755e-18 -0.126935 -4.72642e-19 0.00384487)
(0.195661 1.04446 8.00635e-17 -0.204025 -1.5094e-17 0.00836372)
(0.295164 2.13966 -8.94666e-19 -0.312544 -1.04909e-17 0.0173801)
(0.439569 4.8517 1.52346e-19 -0.480799 5.61498e-18 0.0412302)
(0.441667 9.81436 1.71133e-18 -0.52549 -5.25758e-20 0.083823)
(0.00802699 13.6622 8.51182e-19 -0.11408 1.15272e-20 0.106053)
(-0.641662 15.2509 3.7216e-16 0.542651 7.04172e-19 0.0990103)
(-1.28975 15.6579 -6.35891e-18 1.20716 -3.21671e-19 0.0825893)
(-1.88349 15.6665 -3.04708e-17 1.81584 5.15116e-17 0.0676449)
(-2.4151 15.4957 -2.28618e-15 2.359 -2.07617e-16 0.0560976)
(-2.87717 15.1865 -4.09022e-15 2.82997 -1.8066e-16 0.0471995)
(-3.26787 14.755 3.65149e-15 3.22724 3.89065e-16 0.0406236)
(-3.59155 14.223 -2.64924e-17 3.556 1.08092e-16 0.0355551)
(-3.8327 13.4884 -2.42365e-18 3.80033 -4.79992e-16 0.0323662)
(-3.97931 12.661 -1.90128e-16 3.9489 2.69709e-16 0.0304078)
(-3.7079 10.2403 -3.57118e-15 3.70157 1.05989e-16 0.00632736)
(0.000575409 -0.000446032 -4.02448e-21 -0.000518706 -1.22259e-20 -5.67031e-05)
(0.000490891 -0.000533346 6.98643e-21 -0.000426478 1.65253e-20 -6.44136e-05)
(0.00037229 -0.000609703 -3.49926e-23 -0.000294878 1.16656e-22 -7.74127e-05)
(0.000253073 -0.000640595 1.4912e-20 -0.000164152 2.15739e-21 -8.89215e-05)
(0.000136796 -0.000635614 1.15755e-20 -3.91898e-05 9.07592e-20 -9.76058e-05)
(2.73695e-05 -0.00060303 6.97501e-20 7.89881e-05 1.22592e-19 -0.000106358)
(-5.62152e-05 -0.000545826 -3.40559e-20 0.000170202 5.50769e-21 -0.000113986)
(-0.000113208 -0.000475018 -2.90421e-20 0.000232219 -7.7952e-21 -0.000119011)
(-0.000146785 -0.000401855 -1.66785e-19 0.000269385 -1.83736e-19 -0.0001226)
(-0.000156648 -0.000333701 -5.5234e-20 0.000281239 -1.85492e-20 -0.000124592)
(-0.000150123 -0.00027573 -4.8351e-19 0.000274892 -4.71093e-19 -0.00012477)
(-0.000133544 -0.000234108 -5.79581e-21 0.000257319 7.78918e-20 -0.000123775)
(-0.000112296 -0.000215375 -2.49568e-19 0.000237697 7.2475e-21 -0.0001254)
(-8.97603e-05 -0.000225999 1.80264e-19 0.000226054 1.07011e-19 -0.000136294)
(-6.01663e-05 -0.000297484 -4.66497e-19 0.0002328 -1.35122e-19 -0.000172634)
(1.47024e-05 -0.000539207 1.64156e-18 0.000262232 3.93288e-19 -0.000276934)
(0.000286733 -0.00124369 -2.86188e-18 0.000229004 -2.46379e-18 -0.000515737)
(0.00108441 -0.00293814 -5.10096e-18 -0.000173481 -1.98738e-18 -0.000910926)
(0.00302402 -0.00686446 -1.01648e-17 -0.00154142 4.28967e-18 -0.0014826)
(0.00797752 -0.0173631 2.13493e-18 -0.00552429 -1.17185e-20 -0.00245324)
(0.0201062 -0.0455353 1.82741e-17 -0.0162224 2.51384e-17 -0.00388383)
(0.0552279 -0.138113 -3.95507e-17 -0.0488335 -1.0393e-16 -0.0063944)
(0.12852 -0.378236 1.77455e-19 -0.120291 1.59803e-16 -0.00822924)
(0.340845 -1.25976 3.90737e-18 -0.331552 -6.55696e-17 -0.00929285)
(0.546125 -2.67122 -0 -0.551726 -0 0.00560045)
(0.607178 -4.20357 -1.81825e-17 -0.638717 4.19116e-16 0.0315392)
(0.493089 -5.69296 -5.92967e-17 -0.544774 3.79017e-17 0.0516852)
(0.20706 -6.8834 -8.89504e-17 -0.265885 -3.76406e-16 0.0588251)
(-0.191675 -7.38893 -9.16453e-16 0.138265 -2.19937e-15 0.0534106)
(-0.566819 -7.04737 3.58334e-16 0.530999 -7.15454e-15 0.0358204)
(-0.803796 -6.12648 -1.09105e-16 0.793241 5.04607e-15 0.0105551)
(-0.89513 -5.06978 -3.33426e-16 0.908264 6.62246e-15 -0.0131338)
(-0.897126 -4.16945 -2.17779e-15 0.924509 3.82102e-15 -0.0273831)
(-0.854765 -3.4769 6.16777e-15 0.885277 1.39666e-14 -0.0305116)
(-0.797555 -2.95459 -3.5088e-16 0.823585 -2.38641e-15 -0.0260301)
(-0.728052 -2.55421 6.06768e-15 0.749648 -3.56936e-15 -0.0215964)
(-0.683951 -2.2746 -2.10995e-16 0.698152 4.61853e-17 -0.0142007)
(-0.543877 -2.04312 3.16266e-15 0.575887 6.76025e-16 -0.0320105)
(-0.758682 -2.21555 6.09906e-15 0.670767 7.10696e-15 0.087916)
(0.000639171 -0.000330752 4.76954e-21 -0.000591578 1.48351e-20 -4.75927e-05)
(0.000675389 -0.000210818 -2.59701e-21 -0.000631316 -6.80489e-20 -4.40732e-05)
(0.000680196 -6.40025e-05 -4.31937e-20 -0.000646024 -1.26411e-19 -3.4172e-05)
(0.000640458 9.66619e-05 9.61493e-21 -0.000616806 1.91195e-19 -2.36515e-05)
(0.000549151 0.000242755 9.76417e-20 -0.000537971 -9.14613e-20 -1.11796e-05)
(0.00041234 0.000352459 -2.97619e-20 -0.000410947 -1.40913e-19 -1.39315e-06)
(0.000258192 0.000405121 1.18496e-19 -0.000262664 -3.10375e-19 4.47141e-06)
(0.000124101 0.000405091 -2.41423e-19 -0.000133797 -2.36366e-20 9.69629e-06)
(1.47112e-05 0.000371587 -1.34633e-19 -2.47079e-05 2.91147e-19 9.99678e-06)
(-7.37646e-05 0.000311434 -4.39006e-20 6.90756e-05 -1.03969e-20 4.68902e-06)
(-0.000125623 0.000238588 -5.26257e-20 0.000128753 -1.43295e-19 -3.12973e-06)
(-0.000143309 0.000172892 1.03163e-20 0.00015297 -7.33627e-20 -9.66062e-06)
(-0.000140495 0.000121663 5.157e-20 0.000154352 1.32411e-19 -1.38572e-05)
(-0.000127412 8.47259e-05 -4.75979e-20 0.000143613 -2.98586e-20 -1.62015e-05)
(-0.000110427 5.97711e-05 -2.64382e-20 0.00012772 -9.42441e-20 -1.72931e-05)
(-9.33872e-05 4.35387e-05 -1.00098e-19 0.000110862 -2.68972e-20 -1.74745e-05)
(-7.78581e-05 3.34086e-05 -1.66798e-20 9.4876e-05 8.52686e-23 -1.70179e-05)
(-6.46173e-05 2.72408e-05 -1.04386e-21 8.078e-05 -9.56912e-21 -1.61627e-05)
(-5.36397e-05 2.33378e-05 -1.15123e-20 6.87283e-05 7.87482e-21 -1.50886e-05)
(-4.46873e-05 2.07185e-05 1.93122e-20 5.86804e-05 -6.50974e-21 -1.39931e-05)
(-3.74978e-05 1.87693e-05 -1.22243e-19 5.05321e-05 8.49501e-20 -1.30343e-05)
(-3.22733e-05 1.73577e-05 -2.51326e-20 4.47826e-05 5.09445e-21 -1.25093e-05)
(-2.88981e-05 1.64653e-05 -1.96256e-22 4.16472e-05 -2.21279e-20 -1.27492e-05)
(-2.66498e-05 1.65064e-05 1.14151e-19 4.05422e-05 4.55848e-21 -1.38924e-05)
(-2.45332e-05 1.84105e-05 -1.00379e-19 3.99171e-05 8.67765e-21 -1.53839e-05)
(-0.000263784 0.000253625 -1.09165e-18 0.000457306 2.14687e-19 -0.000193522)
(-0.00137699 0.00163795 -8.00728e-20 0.00251068 -1.04205e-19 -0.0011337)
(-0.00953437 0.0137824 -5.35535e-21 0.0179743 -2.80197e-19 -0.00843996)
(-0.0275991 0.0503963 -5.30525e-20 0.0527961 -7.20891e-22 -0.025197)
(-0.0462414 0.109737 2.83313e-18 0.087672 4.61645e-18 -0.0414306)
(-0.0591008 0.179472 3.16611e-19 0.107365 -3.91243e-18 -0.0482645)
(-0.0671245 0.244796 7.49174e-18 0.112953 -2.50685e-17 -0.0458281)
(-0.0743784 0.299078 2.51207e-15 0.113769 1.77725e-16 -0.0393909)
(-0.0836332 0.344516 2.35063e-15 0.116698 5.60259e-17 -0.0330647)
(-0.0960949 0.384738 -2.1813e-15 0.12435 -2.29535e-16 -0.0282552)
(-0.110638 0.424792 2.11018e-15 0.136085 2.75647e-16 -0.0254468)
(-0.13133 0.46528 -3.74416e-15 0.154384 -5.5082e-16 -0.0230539)
(-0.14985 0.562598 -3.48136e-15 0.177263 -7.46936e-16 -0.0274135)
(-0.211283 0.791599 -3.47742e-15 0.200038 -1.18296e-16 0.0112449)
(0.000336454 -0.000301549 -1.51971e-21 -0.00036111 -5.06052e-21 2.46552e-05)
(0.000263291 -0.000361252 -3.37309e-20 -0.00029326 -7.73865e-20 2.99689e-05)
(0.000168077 -0.000403492 2.47155e-20 -0.000203174 5.65965e-20 3.50976e-05)
(6.14346e-05 -0.000417902 3.38698e-20 -0.000104041 6.28449e-20 4.2606e-05)
(-4.34341e-05 -0.000406581 6.13715e-20 -5.10285e-06 8.82436e-20 4.8537e-05)
(-0.00014267 -0.000368233 -1.87687e-19 8.81932e-05 -3.23622e-19 5.44764e-05)
(-0.000226267 -0.000306632 1.31042e-19 0.000165238 2.58341e-19 6.10289e-05)
(-0.000287323 -0.000231116 1.73444e-19 0.000220956 1.55159e-19 6.63667e-05)
(-0.000325542 -0.000147802 -1.01956e-20 0.000254556 2.07449e-20 7.09862e-05)
(-0.000341373 -6.5187e-05 1.06223e-19 0.000266278 1.86483e-19 7.5095e-05)
(-0.000338026 1.10495e-05 -2.27942e-19 0.000260156 -1.14247e-20 7.78695e-05)
(-0.000320624 7.76243e-05 3.10068e-19 0.000241268 3.41807e-19 7.9356e-05)
(-0.00029635 0.000132345 1.4563e-19 0.000217597 6.02434e-20 7.8753e-05)
(-0.000269399 0.000176785 7.25088e-20 0.000192962 -6.91231e-20 7.6437e-05)
(-0.000242547 0.000211509 2.08005e-19 0.000169916 2.05858e-19 7.26315e-05)
(-0.000213434 0.00023206 -5.16239e-19 0.000147461 -5.27748e-19 6.59736e-05)
(-0.000173753 0.000227807 1.18739e-19 0.000119384 1.74483e-19 5.43688e-05)
(-0.000144966 0.000222978 9.3628e-19 0.000100283 2.72963e-19 4.46825e-05)
(-9.73176e-05 0.000171801 2.15756e-19 6.87429e-05 1.59538e-19 2.85747e-05)
(-0.000773849 0.00152717 -6.11063e-19 0.000567184 -4.10288e-20 0.000206665)
(-0.000108038 0.00023415 1.13905e-19 8.31359e-05 -2.53619e-19 2.49018e-05)
(-0.000268835 0.000637481 7.12912e-20 0.000219812 6.11588e-19 4.9023e-05)
(-0.00013822 0.000377673 1.4632e-18 0.000123885 -3.19523e-19 1.43353e-05)
(0.000341499 -0.00100876 -3.50394e-18 -0.000254919 -1.47804e-18 -8.65805e-05)
(0.00479121 -0.0188525 1.53895e-19 -0.00396925 3.53764e-19 -0.000821956)
(0.0151929 -0.0831217 -3.49727e-17 -0.0128467 1.02851e-17 -0.00234617)
(0.0284864 -0.241733 1.34423e-17 -0.0243685 5.15281e-18 -0.00411789)
(0.0376262 -0.596579 -1.724e-17 -0.0319219 -1.32138e-18 -0.00570431)
(0.0206957 -1.29427 -4.53997e-16 -0.014365 4.54557e-16 -0.00633073)
(-0.0652378 -2.34523 -8.59722e-16 0.069823 2.7263e-17 -0.00458525)
(-0.25109 -3.49078 3.17182e-15 0.250317 -9.29578e-16 0.000772606)
(-0.500584 -4.27784 2.78214e-15 0.492018 1.47547e-15 0.00856585)
(-0.713417 -4.44094 -9.42958e-17 0.700274 3.73823e-15 0.0131433)
(-0.819849 -4.12265 6.03079e-15 0.809643 -4.45562e-15 0.0102056)
(-0.830388 -3.62129 4.72722e-15 0.82628 -2.71029e-15 0.00410721)
(-0.770984 -3.11787 -8.90043e-15 0.772377 -3.17549e-15 -0.00139359)
(-0.706427 -2.71422 -3.03998e-17 0.705682 -1.60662e-15 0.000744873)
(-0.483207 -2.30111 5.93927e-15 0.495892 -1.52883e-15 -0.0126849)
(-0.754093 -2.5658 -1.29984e-14 0.738254 4.27807e-15 0.0158383)
(0.000395757 -0.00022566 -7.54774e-21 -0.00041814 -1.76417e-20 2.23828e-05)
(0.000433967 -0.000143778 -6.06289e-21 -0.000451726 -4.44447e-21 1.77593e-05)
(0.000456052 -4.37355e-05 5.89269e-20 -0.000469613 9.47326e-20 1.35608e-05)
(0.000448811 6.23939e-05 -3.62478e-20 -0.00045721 -2.4131e-21 8.39879e-06)
(0.000407833 0.000166469 7.94084e-21 -0.000412559 3.91665e-20 4.72569e-06)
(0.000332253 0.000251237 -1.40378e-20 -0.000333725 1.42254e-19 1.47203e-06)
(0.000234124 0.000302795 -2.34699e-20 -0.000233726 1.21844e-19 -3.98219e-07)
(0.000132799 0.000317919 3.64978e-19 -0.000133626 2.44006e-19 8.27142e-07)
(4.09986e-05 0.000306282 5.92674e-20 -4.22826e-05 -6.767e-20 1.28401e-06)
(-3.35581e-05 0.000269046 1.7838e-19 3.24885e-05 2.25379e-20 1.06957e-06)
(-8.121e-05 0.000216105 -1.47851e-19 7.96314e-05 -8.93644e-20 1.57865e-06)
(-0.00010368 0.000162223 -1.02745e-19 0.000100778 1.55794e-19 2.90232e-06)
(-0.000108883 0.000115202 1.19032e-19 0.000104314 -5.88755e-20 4.56804e-06)
(-0.000103635 7.73898e-05 8.89383e-20 9.73151e-05 -3.56071e-22 6.31997e-06)
(-9.3153e-05 4.90477e-05 -7.0133e-20 8.5411e-05 6.3614e-20 7.74202e-06)
(-8.09261e-05 2.86175e-05 -4.79388e-20 7.20071e-05 1.11584e-19 8.91901e-06)
(-6.90657e-05 1.44721e-05 1.20658e-19 5.93099e-05 -7.06753e-20 9.75585e-06)
(-5.86096e-05 4.77053e-06 1.08615e-19 4.82604e-05 -2.00061e-20 1.03492e-05)
(-5.00076e-05 -1.98809e-06 4.20298e-20 3.93448e-05 -3.98635e-21 1.06628e-05)
(-4.29794e-05 -7.06499e-06 -1.42446e-20 3.20974e-05 5.03403e-20 1.08821e-05)
(-3.72227e-05 -1.11953e-05 2.01837e-19 2.62326e-05 2.1088e-20 1.09901e-05)
(-3.217e-05 -1.50988e-05 7.47257e-21 2.10198e-05 -3.46652e-20 1.11502e-05)
(-2.70739e-05 -1.92094e-05 -6.13511e-22 1.56545e-05 -2.19871e-21 1.14194e-05)
(-2.04511e-05 -2.30697e-05 -4.08631e-21 8.26186e-06 -2.31608e-20 1.21893e-05)
(-1.23284e-05 -2.51388e-05 -3.00772e-21 -1.17739e-06 1.64341e-20 1.35058e-05)
(-4.20907e-06 -2.42959e-05 3.12221e-19 -1.03396e-05 -1.65751e-20 1.45487e-05)
(2.72355e-06 -2.25306e-05 5.32639e-23 -1.8805e-05 2.2674e-23 1.60815e-05)
(5.73262e-06 -1.36031e-05 -2.35753e-20 -1.79332e-05 1.09167e-21 1.22006e-05)
(7.03529e-05 -8.74669e-05 -1.59507e-21 -0.000177596 -1.32262e-22 0.000107243)
(0.000533026 -0.000275675 -2.81927e-18 -0.00122518 -1.03604e-19 0.000692152)
(0.00154215 0.000584696 1.90332e-17 -0.00341512 1.02155e-18 0.00187297)
(0.00237442 0.00530464 -4.81071e-19 -0.0053672 -1.51752e-20 0.00299278)
(0.00178453 0.0168466 -2.86215e-16 -0.00503041 -7.67139e-18 0.00324589)
(-0.000985686 0.0367027 -2.36351e-19 -0.0015739 1.35327e-17 0.00255959)
(-0.00611541 0.0643323 -1.46782e-19 0.00465196 -1.25337e-18 0.00146346)
(-0.0121703 0.0973449 3.38992e-17 0.0117697 -8.30544e-17 0.00040061)
(-0.0202062 0.132668 -1.65677e-16 0.0202471 6.5339e-16 -4.09434e-05)
(-0.0102321 0.15885 2.2394e-15 0.0111106 8.0624e-16 -0.000878512)
(-0.0396982 0.270927 4.57989e-15 0.0316036 1.76622e-15 0.00809468)
(0.000304669 -0.000248839 -6.71691e-21 -0.000296082 -1.2058e-20 -8.58727e-06)
(0.000259023 -0.000296842 -1.42471e-20 -0.000249481 -2.30305e-20 -9.54165e-06)
(0.000197165 -0.000338532 2.76329e-20 -0.000184853 4.08295e-20 -1.23126e-05)
(0.000127606 -0.000365943 3.73519e-20 -0.000112761 3.777e-20 -1.48448e-05)
(5.54468e-05 -0.000375305 4.32865e-21 -3.77043e-05 -1.69383e-21 -1.77425e-05)
(-1.67937e-05 -0.000366768 -1.38198e-20 3.79322e-05 3.48112e-20 -2.11385e-05)
(-8.17057e-05 -0.000342124 2.80841e-19 0.000106306 2.80917e-19 -2.46006e-05)
(-0.000134444 -0.000304335 -2.63207e-19 0.000162519 -3.46318e-19 -2.80743e-05)
(-0.000173489 -0.000257925 7.17638e-20 0.00020531 1.85854e-20 -3.18212e-05)
(-0.000197463 -0.000208206 3.46486e-19 0.000232666 2.563e-19 -3.52029e-05)
(-0.000207623 -0.000159098 2.73123e-19 0.000246051 2.75941e-19 -3.84274e-05)
(-0.000206153 -0.000113781 2.9516e-19 0.000247344 8.54819e-20 -4.11911e-05)
(-0.000195417 -7.43715e-05 -3.2796e-19 0.000238613 -2.48073e-19 -4.31961e-05)
(-0.000178303 -4.1585e-05 -2.05741e-19 0.000222351 -2.0499e-19 -4.40476e-05)
(-0.000156908 -1.58451e-05 2.21353e-20 0.000200995 -6.85975e-20 -4.40869e-05)
(-0.000132925 5.78832e-06 -4.97814e-19 0.000175227 3.56053e-20 -4.23018e-05)
(-0.00010775 2.40627e-05 -1.37016e-19 0.00014657 -1.73528e-19 -3.88193e-05)
(-8.47146e-05 3.94673e-05 -7.72678e-19 0.000119006 -6.01999e-19 -3.42915e-05)
(-6.12826e-05 5.049e-05 7.65598e-20 8.80442e-05 -1.02909e-19 -2.67616e-05)
(-4.24561e-05 5.61534e-05 2.86056e-20 6.08158e-05 -6.6436e-20 -1.83597e-05)
(-3.23898e-05 6.22503e-05 -2.53495e-19 4.43264e-05 -1.63965e-21 -1.19366e-05)
(-3.44331e-05 8.69769e-05 4.39504e-20 4.40373e-05 9.48827e-21 -9.60422e-06)
(-3.14833e-05 0.000105445 -2.17582e-19 3.84688e-05 -4.43367e-20 -6.98557e-06)
(-8.77864e-05 0.000455991 -2.80349e-19 0.000109001 3.08509e-19 -2.1215e-05)
(-0.000307793 0.0038789 6.2655e-19 0.000464934 4.21147e-20 -0.000157141)
(0.000267552 0.00922389 6.46548e-18 9.47435e-05 3.45753e-18 -0.000362296)
(0.00215826 0.0166503 -1.3164e-18 -0.00150391 5.55675e-19 -0.000654348)
(0.00274971 0.010318 1.71202e-18 -0.00229072 1.07621e-19 -0.000458992)
(0.00436213 0.003738 3.44835e-17 -0.00386604 1.73223e-18 -0.000496097)
(0.00788554 -0.0273945 -6.23e-18 -0.00710121 7.19443e-17 -0.000784338)
(0.00886336 -0.18861 -3.40279e-16 -0.00740884 -3.30965e-16 -0.00145452)
(-0.0244799 -0.644365 1.33623e-15 0.0264194 -1.28258e-15 -0.0019395)
(-0.136544 -1.43758 1.63922e-15 0.137874 -1.58483e-16 -0.00133061)
(-0.327919 -2.29801 -4.31782e-16 0.326782 -5.91379e-15 0.00113639)
(-0.523493 -2.8506 -4.97496e-15 0.519365 -1.50504e-15 0.0041282)
(-0.633832 -2.98901 6.18009e-16 0.630915 3.24139e-15 0.00291655)
(-0.67156 -2.9001 -8.89895e-15 0.667146 1.32654e-15 0.00441354)
(-0.503793 -2.62436 -6.42016e-15 0.511813 7.99e-16 -0.0080203)
(-0.706602 -2.83162 7.71978e-15 0.680727 -4.94264e-15 0.0258751)
(0.000339242 -0.000189286 -3.51843e-21 -0.000333625 -2.82836e-21 -5.61702e-06)
(0.0003605 -0.000126561 1.24219e-20 -0.000355679 5.88944e-20 -4.82168e-06)
(0.00036787 -4.94111e-05 3.79817e-20 -0.000365741 8.10642e-20 -2.12988e-06)
(0.000357407 3.1723e-05 4.34118e-20 -0.000356534 -2.15171e-20 -8.73671e-07)
(0.000325012 0.000110549 -8.58406e-20 -0.000325306 -6.99377e-20 2.93021e-07)
(0.000270533 0.000177487 -1.13387e-20 -0.000270702 -1.02182e-19 1.69142e-07)
(0.000200996 0.000223709 -1.36196e-19 -0.000200819 -1.28794e-19 -1.76682e-07)
(0.000127137 0.000245601 -1.97283e-19 -0.000127346 -6.38746e-21 2.09699e-07)
(5.59043e-05 0.000244582 -5.13143e-20 -5.67087e-05 -3.15226e-20 8.04428e-07)
(-5.32527e-06 0.000222912 6.31605e-20 4.24468e-06 -4.34089e-20 1.08059e-06)
(-4.92623e-05 0.000188226 5.869e-20 4.8381e-05 1.34745e-19 8.81224e-07)
(-7.56687e-05 0.000149981 1.17668e-19 7.53475e-05 -4.59385e-20 3.21189e-07)
(-8.81477e-05 0.000114212 -1.0007e-19 8.86288e-05 -1.06297e-19 -4.81121e-07)
(-9.08878e-05 8.37064e-05 -1.60135e-20 9.22557e-05 3.98505e-20 -1.36788e-06)
(-8.7525e-05 5.95516e-05 9.31365e-20 8.98265e-05 -2.1056e-20 -2.30153e-06)
(-8.10231e-05 4.12743e-05 1.97438e-19 8.41569e-05 -1.56358e-20 -3.13385e-06)
(-7.34076e-05 2.79807e-05 -1.26604e-19 7.72813e-05 -3.16241e-20 -3.87375e-06)
(-6.58917e-05 1.84717e-05 -3.59146e-20 7.03673e-05 -5.21987e-20 -4.4756e-06)
(-5.91437e-05 1.15893e-05 -1.66268e-20 6.41087e-05 9.3028e-21 -4.96504e-06)
(-5.3272e-05 6.28412e-06 1.86249e-19 5.85651e-05 -7.09865e-20 -5.29309e-06)
(-4.82125e-05 1.88717e-06 3.21225e-20 5.37566e-05 -4.58239e-20 -5.54406e-06)
(-4.36766e-05 -2.16974e-06 -1.80774e-19 4.94009e-05 5.1117e-20 -5.7243e-06)
(-3.91884e-05 -6.21953e-06 -7.06537e-21 4.50731e-05 2.47136e-20 -5.88466e-06)
(-3.40285e-05 -1.00024e-05 -2.70052e-21 4.00141e-05 -1.61921e-20 -5.98556e-06)
(-2.84096e-05 -1.23645e-05 2.36714e-21 3.46637e-05 -1.94734e-22 -6.25415e-06)
(-2.34749e-05 -1.30714e-05 -1.3752e-19 3.0332e-05 -2.3364e-20 -6.85714e-06)
(-1.95837e-05 -1.28936e-05 -2.07524e-21 2.71226e-05 3.64836e-22 -7.53889e-06)
(-1.66134e-05 -1.2378e-05 2.96156e-20 2.48074e-05 4.20442e-22 -8.19403e-06)
(-1.36334e-05 -1.13232e-05 -1.09928e-21 2.19564e-05 -2.42463e-23 -8.32295e-06)
(-1.11743e-05 -1.04032e-05 6.03404e-22 1.93523e-05 -5.21585e-23 -8.17797e-06)
(-6.79944e-06 -7.40115e-06 -7.53312e-20 1.26693e-05 -1.81912e-21 -5.86983e-06)
(-4.10821e-06 -5.56328e-06 -2.09369e-21 8.46276e-06 -1.3003e-22 -4.35455e-06)
(-3.17787e-05 -5.88956e-05 9.0678e-21 8.2309e-05 -8.0388e-20 -5.05303e-05)
(3.68121e-06 -2.90084e-05 1.85591e-17 0.000109871 1.84766e-18 -0.000113552)
(0.000256477 0.000707116 1.04165e-18 -0.000161037 1.15856e-19 -9.54404e-05)
(0.000924321 0.00367967 -1.97666e-16 -0.001007 -3.52938e-17 8.26811e-05)
(0.00158627 0.012021 1.30415e-15 -0.00211241 1.90731e-16 0.00052614)
(0.00686914 0.0293465 4.65311e-17 -0.00740065 -1.72732e-16 0.000531505)
(-0.00336607 0.108769 2.7202e-16 -0.00153767 -1.51222e-15 0.00490373)
(0.00022316 -0.000189223 -7.83361e-21 -0.000225853 -1.1232e-20 2.69319e-06)
(0.000185827 -0.000224863 -1.4567e-20 -0.000189794 -1.97064e-20 3.9672e-06)
(0.000137338 -0.0002549 4.95101e-20 -0.000141754 6.31632e-20 4.4161e-06)
(8.20126e-05 -0.000273509 -2.10274e-19 -8.7674e-05 -2.82321e-19 5.66143e-06)
(2.39093e-05 -0.000278573 5.21589e-20 -3.09059e-05 7.85599e-20 6.99651e-06)
(-3.47299e-05 -0.000269462 1.134e-19 2.65005e-05 1.17246e-19 8.22937e-06)
(-8.86667e-05 -0.00024679 -9.72451e-20 7.8772e-05 -1.5613e-19 9.89465e-06)
(-0.000134012 -0.000212675 -6.29999e-20 0.000122328 1.04297e-20 1.16841e-05)
(-0.000168517 -0.000170041 -3.8889e-19 0.000155046 -3.65171e-19 1.34707e-05)
(-0.000190797 -0.000123006 -5.58624e-20 0.000175289 -1.45882e-19 1.55078e-05)
(-0.000200925 -7.49911e-05 1.05097e-20 0.000183387 -3.41122e-20 1.75379e-05)
(-0.000200003 -2.90851e-05 -1.95165e-19 0.00018041 -2.45704e-19 1.9593e-05)
(-0.000189906 1.22073e-05 9.34996e-20 0.000168301 1.11266e-19 2.16056e-05)
(-0.000172979 4.72857e-05 -3.82732e-19 0.000149609 -1.97962e-19 2.33696e-05)
(-0.000151437 7.57802e-05 8.29049e-20 0.0001266 4.61706e-20 2.48367e-05)
(-0.000127748 9.71722e-05 3.6392e-19 0.000102166 3.03664e-19 2.55818e-05)
(-0.000103617 0.00011037 -4.98686e-19 7.88292e-05 -1.40804e-19 2.47876e-05)
(-7.97584e-05 0.000116216 -9.2085e-20 5.67595e-05 4.12462e-19 2.29989e-05)
(-5.73209e-05 0.000116153 -3.10104e-20 3.67898e-05 -5.23884e-20 2.05311e-05)
(-3.75107e-05 0.000111898 -3.72233e-19 1.98421e-05 -5.89556e-20 1.76686e-05)
(-1.83484e-05 9.01367e-05 3.33505e-19 6.01964e-06 2.0512e-19 1.23288e-05)
(-7.23224e-06 6.92441e-05 8.56633e-21 -4.13604e-07 -1.27464e-20 7.64584e-06)
(-2.17251e-06 6.2523e-05 1.76039e-19 -2.96706e-06 4.94317e-20 5.13957e-06)
(2.07035e-06 6.87803e-05 1.28751e-19 -6.24705e-06 4.34125e-20 4.17671e-06)
(7.34623e-06 7.3845e-05 -1.27123e-20 -1.07639e-05 -1.21794e-21 3.41764e-06)
(1.18728e-05 7.56756e-05 1.38797e-21 -1.44543e-05 -5.27733e-21 2.58148e-06)
(1.43599e-05 7.62483e-05 1.38777e-20 -1.61109e-05 -3.87621e-21 1.75101e-06)
(0.000774012 0.00384785 -3.3365e-19 -0.000827227 -4.94689e-19 5.3215e-05)
(0.00130393 0.00608169 -7.03177e-18 -0.00134572 -4.07862e-19 4.17896e-05)
(1.83206e-05 7.58997e-05 9.06928e-21 -1.84437e-05 5.05935e-22 1.23112e-07)
(0.000591327 0.00199292 -5.4031e-19 -0.000587109 2.30139e-19 -4.21842e-06)
(0.00564307 0.0123239 -9.90451e-17 -0.00556813 -7.22457e-17 -7.49474e-05)
(0.0172596 -0.00564331 -4.71091e-17 -0.0169066 -1.42799e-16 -0.000352984)
(0.00993142 -0.213112 -3.39786e-15 -0.00890875 3.32505e-16 -0.00102267)
(-0.0713882 -0.777928 5.63345e-16 0.0729197 1.85692e-15 -0.00153145)
(-0.236676 -1.56392 -6.70537e-19 0.238098 1.02495e-19 -0.0014224)
(-0.420224 -2.22213 -1.47177e-16 0.41775 3.97301e-15 0.00247382)
(-0.425064 -2.5211 1.37747e-16 0.433623 1.78955e-16 -0.00855951)
(-0.648206 -2.89539 -1.20121e-14 0.614478 2.55472e-15 0.0337279)
(0.000252406 -0.00014601 1.41533e-20 -0.000255258 8.03709e-21 2.8515e-06)
(0.000272306 -9.99095e-05 -4.00953e-20 -0.000273855 -6.22441e-20 1.54954e-06)
(0.000282593 -4.35036e-05 -2.39181e-20 -0.000284078 3.92245e-20 1.48483e-06)
(0.000279134 1.71361e-05 1.08196e-19 -0.000279901 7.09843e-20 7.66851e-07)
(0.000259039 7.73258e-05 -3.79068e-20 -0.000259536 -2.01526e-19 4.96839e-07)
(0.000221963 0.000130248 -7.10312e-20 -0.000221812 5.74944e-20 -1.50748e-07)
(0.000172151 0.000169656 1.79487e-19 -0.000171831 1.3868e-19 -3.19449e-07)
(0.000116782 0.000192113 -6.15814e-20 -0.000116731 -1.57293e-19 -5.09493e-08)
(6.14018e-05 0.000197338 -1.42013e-19 -6.15613e-05 -6.15012e-20 1.59515e-07)
(1.17133e-05 0.000186406 -1.05969e-19 -1.20109e-05 4.1927e-20 2.97574e-07)
(-2.67332e-05 0.000164037 1.20074e-19 2.64409e-05 2.16303e-21 2.92219e-07)
(-5.25312e-05 0.000136349 -7.12173e-20 5.22431e-05 -6.39716e-20 2.8812e-07)
(-6.71268e-05 0.000108089 -8.66038e-20 6.67572e-05 6.73386e-20 3.69638e-07)
(-7.30103e-05 8.21311e-05 8.3626e-20 7.24681e-05 3.39213e-20 5.42188e-07)
(-7.27472e-05 6.00848e-05 -1.25645e-19 7.19718e-05 2.21386e-20 7.75379e-07)
(-6.87711e-05 4.23249e-05 -3.0163e-20 6.76944e-05 -8.71776e-20 1.0767e-06)
(-6.29214e-05 2.85827e-05 3.49942e-20 6.15141e-05 4.47418e-20 1.40728e-06)
(-5.65028e-05 1.81669e-05 -1.35493e-19 5.47603e-05 7.50834e-21 1.74245e-06)
(-5.03033e-05 1.02924e-05 5.35413e-20 4.82545e-05 -1.43641e-21 2.04884e-06)
(-4.46449e-05 4.16082e-06 -2.05474e-19 4.23149e-05 1.56061e-20 2.33001e-06)
(-3.95788e-05 -8.47705e-07 -2.6475e-20 3.70207e-05 7.25441e-21 2.55809e-06)
(-3.49082e-05 -5.23394e-06 1.64403e-19 3.21599e-05 1.25466e-20 2.74839e-06)
(-3.02492e-05 -9.27948e-06 1.56405e-19 2.7353e-05 -3.46356e-20 2.8962e-06)
(-2.49933e-05 -1.28173e-05 -1.31475e-19 2.18998e-05 9.92537e-21 3.09344e-06)
(-1.91522e-05 -1.50442e-05 -1.75408e-21 1.58287e-05 9.92511e-22 3.32351e-06)
(-1.35723e-05 -1.57035e-05 -1.25514e-19 1.00631e-05 3.44526e-20 3.50919e-06)
(-8.69744e-06 -1.53982e-05 -2.18378e-21 4.88131e-06 2.80783e-23 3.81614e-06)
(-4.48884e-06 -1.45224e-05 -1.43407e-23 2.4661e-07 -7.50506e-22 4.24223e-06)
(-9.24012e-07 -1.34486e-05 -6.94816e-23 -3.81412e-06 1.7126e-23 4.73813e-06)
(1.90415e-06 -1.14948e-05 4.47479e-20 -6.74594e-06 7.5743e-22 4.84179e-06)
(4.7592e-06 -1.24083e-05 1.37763e-22 -1.06937e-05 -1.43921e-21 5.93454e-06)
(3.26239e-06 -5.85336e-06 -1.70397e-22 -6.13279e-06 -3.40029e-23 2.8704e-06)
(1.39936e-05 -2.04589e-05 -7.13073e-19 -2.32522e-05 -5.95391e-20 9.2586e-06)
(3.42388e-06 -4.36712e-06 -1.57931e-19 -5.06286e-06 -1.32314e-20 1.63898e-06)
(0.000255411 -0.000284228 9.45088e-20 -0.000336328 1.11194e-20 8.09167e-05)
(0.000598444 -0.000498609 -4.48959e-17 -0.000691769 -1.59718e-18 9.33243e-05)
(0.000280296 -0.00010327 1.96379e-18 -0.000301779 -1.46094e-17 2.14828e-05)
(0.000963228 0.000219708 1.46394e-18 -0.000938373 2.87558e-19 -2.48551e-05)
(0.00391584 0.0205901 -5.24993e-16 -0.00533751 6.85044e-17 0.00142167)
(0.000183849 -0.000155191 1.58149e-20 -0.000182867 1.79042e-20 -9.8148e-07)
(0.000156408 -0.000183981 -1.18297e-20 -0.000155536 -1.28417e-20 -8.72484e-07)
(0.00012006 -0.000209436 -5.82236e-23 -0.000118628 -1.06964e-21 -1.43211e-06)
(7.83532e-05 -0.000227268 -5.96673e-21 -7.66388e-05 5.29438e-21 -1.71431e-06)
(3.40309e-05 -0.000235421 1.50292e-19 -3.19732e-05 1.57258e-19 -2.05773e-06)
(-1.18616e-05 -0.000233477 -9.53915e-20 1.45861e-05 -1.20035e-19 -2.72454e-06)
(-5.53487e-05 -0.000221451 -6.84984e-21 5.86834e-05 2.97233e-20 -3.33462e-06)
(-9.35009e-05 -0.000200391 3.2505e-19 9.75688e-05 3.10054e-19 -4.0679e-06)
(-0.000124591 -0.000172106 -7.47346e-20 0.000129611 5.76475e-21 -5.01997e-06)