/*--------------------------------*- C++ -*----------------------------------*\
| =========                 |                                                 |
| \\      /  F ield         | OpenFOAM: The Open Source CFD Toolbox           |
|  \\    /   O peration     | Version:  2312                                  |
|   \\  /    A nd           | Website:  www.openfoam.com                      |
|    \\/     M anipulation  |                                                 |
\*---------------------------------------------------------------------------*/
FoamFile
{
    version     2.0;
    format      ascii;
    arch        "LSB;label=32;scalar=64";
    class       volVectorField;
    location    "150";
    object      U;
}
// * * * * * * * * * * * * * * * * * * * * * * * * * * * * * * * * * * * * * //

dimensions      [0 1 -1 0 0 0 0];

internalField   nonuniform List<vector> 
10720
(
(0.356699 26.7743 1.11906e-17)
(2.03914 29.0697 -1.02678e-17)
(4.15352 31.2944 0)
(6.59367 33.0486 -3.75674e-16)
(9.29597 34.4101 4.19619e-16)
(12.1936 35.3344 3.10783e-16)
(15.1344 35.7235 4.363e-16)
(18.023 35.6097 0)
(20.7753 35.054 0)
(23.3092 34.0938 0)
(25.5866 32.8102 1.1886e-16)
(27.5754 31.2857 0)
(29.2187 29.502 2.39738e-15)
(30.4994 27.4948 0)
(31.3777 25.2811 0)
(31.8306 22.8911 0)
(31.7967 20.3262 -4.3319e-15)
(31.2129 17.6231 -6.69609e-15)
(29.965 14.7944 6.23218e-15)
(27.9522 11.9023 0)
(25.0419 9.00681 6.03078e-15)
(21.2844 6.24653 -1.35493e-14)
(17.0061 3.82348 8.11766e-15)
(13.5916 1.97296 -2.87694e-16)
(12.1206 0.679384 0)
(12.5177 -0.110751 4.03805e-15)
(13.7397 -0.509888 5.38765e-17)
(15.101 -0.734647 -1.29746e-15)
(16.2461 -0.940117 -4.24698e-15)
(16.9987 -1.17861 -1.41409e-14)
(17.3566 -1.44596 5.93441e-15)
(17.3649 -1.71807 1.02809e-14)
(17.0379 -1.96503 8.44925e-15)
(16.4293 -2.16458 2.78603e-14)
(15.5286 -2.29133 -1.09019e-14)
(14.3263 -2.32796 -7.55795e-17)
(12.4808 -2.20086 2.20899e-17)
(10.3734 -1.94218 2.88682e-15)
(4.38273 -1.2693 1.40237e-14)
(-0.960259 24.3316 -2.52954e-18)
(-2.01016 21.587 -1.74172e-17)
(-2.71718 18.5041 6.76736e-17)
(-2.96167 14.9476 -1.9019e-16)
(-2.58376 11.2755 -6.34752e-16)
(-1.56274 7.6391 1.12655e-15)
(-0.0177497 4.37523 6.12199e-15)
(1.79927 1.71431 3.21613e-15)
(3.79024 -0.616291 0)
(6.04735 -2.5905 0)
(8.32152 -4.01853 1.9707e-15)
(10.4061 -4.92361 7.22866e-16)
(12.2518 -5.43629 -1.21133e-15)
(13.8656 -5.67399 9.98705e-16)
(15.2695 -5.73165 1.65118e-15)
(16.4964 -5.67201 1.06564e-15)
(17.5784 -5.54171 1.35489e-15)
(18.5478 -5.36842 8.98225e-16)
(19.4356 -5.17084 0)
(20.2633 -4.95101 0)
(21.0492 -4.70994 -1.22305e-15)
(21.8038 -4.43771 -5.48861e-17)
(22.5282 -4.11987 8.00081e-16)
(23.191 -3.73131 -5.33359e-16)
(23.7236 -3.27178 2.76704e-17)
(24.1089 -2.78646 0)
(24.3785 -2.3131 5.61026e-17)
(24.5697 -1.80289 0)
(24.697 -1.19267 0)
(24.7601 -0.514923 -2.43893e-17)
(24.7364 0.164506 0)
(24.6124 0.798882 1.65345e-16)
(24.3897 1.36645 2.46189e-16)
(24.0769 1.86122 8.43238e-16)
(23.674 2.28569 -1.6407e-17)
(23.1773 2.6479 -5.76514e-19)
(22.483 2.94941 0)
(21.5288 3.1577 3.89857e-15)
(18.8976 3.3427 7.6488e-15)
(7.0598 23.2472 -1.01068e-17)
(8.89283 24.9756 1.87503e-18)
(11.1342 26.5505 0)
(13.7255 27.8662 0)
(16.5264 28.8615 -1.23338e-16)
(19.541 29.4766 -2.98156e-16)
(22.6585 29.6639 0)
(25.7485 29.442 0)
(28.7575 28.8198 6.51171e-16)
(31.601 27.8455 0)
(34.2272 26.5758 2.42877e-15)
(36.6143 25.0747 0)
(38.7757 23.4556 8.71911e-16)
(40.7235 21.7596 -8.56221e-16)
(42.4608 20.01 1.72653e-15)
(43.9427 18.2467 -3.43739e-15)
(45.1527 16.4934 3.65151e-15)
(46.06 14.7792 3.3237e-15)
(46.618 13.1127 3.23297e-15)
(46.7368 11.5061 1.96225e-16)
(46.2717 9.93051 -3.35543e-15)
(45.0341 8.3259 3.26307e-15)
(42.9062 6.57484 -1.93183e-16)
(39.9665 4.6732 0)
(36.8563 2.87868 0)
(33.9443 1.40587 0)
(31.2409 0.298449 1.82184e-16)
(28.7933 -0.523606 -4.02258e-17)
(26.7056 -1.16282 2.49377e-15)
(25.0425 -1.67188 2.91901e-17)
(23.7377 -2.07095 -2.19869e-17)
(22.6445 -2.37803 -7.90541e-17)
(21.6198 -2.61409 5.23677e-15)
(20.5383 -2.78798 -8.42567e-15)
(19.3037 -2.89095 -4.3744e-17)
(17.8749 -2.90809 -9.02254e-15)
(15.9209 -2.77729 0)
(13.7944 -2.51147 -7.19019e-16)
(7.91753 -1.65571 6.43946e-15)
(5.52199 21.4105 1.35436e-17)
(4.19483 19.3737 -5.55459e-17)
(3.04756 16.9934 -6.56765e-16)
(2.19461 14.2948 8.17255e-16)
(1.81803 11.3669 0)
(2.00759 8.35505 -1.75976e-15)
(2.7699 5.4833 -1.34305e-15)
(3.98178 2.94298 -9.65519e-15)
(5.50081 0.692074 2.56401e-15)
(7.28978 -1.13014 -1.87447e-15)
(9.18287 -2.42155 2.33183e-15)
(11.0206 -3.255 -6.57472e-16)
(12.7325 -3.75017 0)
(14.2932 -4.00039 -4.3006e-16)
(15.6956 -4.08727 6.08176e-17)
(16.953 -4.06305 -9.47999e-16)
(18.0836 -3.97092 0)
(19.1117 -3.83468 0)
(20.0613 -3.67142 -9.71929e-17)
(20.9556 -3.47759 9.37695e-17)
(21.8101 -3.25027 -1.09491e-15)
(22.6371 -2.97147 -1.16937e-16)
(23.4381 -2.61931 5.10829e-17)
(24.1904 -2.15268 5.42522e-16)
(24.841 -1.57917 -3.55839e-16)
(25.3639 -0.962766 -2.46187e-16)
(25.7692 -0.328437 0)
(26.0507 0.285756 0)
(26.2012 0.834269 0)
(26.2238 1.3021 9.70201e-18)
(26.1493 1.69811 0)
(26.0037 2.04577 0)
(25.797 2.36433 -3.83602e-16)
(25.5302 2.66196 -2.61424e-16)
(25.1939 2.94196 1.47616e-17)
(24.7895 3.20723 3.72959e-16)
(24.2155 3.45478 -1.63413e-15)
(23.6533 3.67631 -3.06075e-15)
(21.6404 3.74385 -5.27017e-15)
(8.32263 21.4265 -2.30006e-18)
(9.62473 22.9524 -4.43397e-19)
(11.2144 24.4434 -1.23289e-18)
(13.0467 25.8254 -3.19811e-17)
(15.0719 26.9823 -1.59673e-16)
(17.2894 27.891 5.66129e-16)
(19.626 28.5112 -3.98805e-16)
(22.0086 28.805 -4.78253e-16)
(24.3808 28.7715 9.72997e-18)
(26.6849 28.4216 -6.3617e-16)
(28.8678 27.7755 5.99685e-16)
(30.8954 26.8601 -1.5639e-15)
(32.7384 25.7032 -7.4756e-16)
(34.3826 24.333 0)
(35.8135 22.7868 -1.82083e-15)
(37.0835 21.0757 3.65842e-15)
(38.2254 19.2226 0)
(39.2544 17.2782 -6.92322e-15)
(40.2208 15.2855 -3.43936e-15)
(41.1592 13.3126 3.98348e-16)
(42.1312 11.4025 -3.85599e-16)
(43.0974 9.57377 -1.75202e-16)
(43.8729 7.73771 -2.47246e-15)
(44.0864 5.81465 1.27895e-15)
(43.5693 3.92151 0)
(42.4892 2.25715 1.20827e-15)
(41.0579 0.911318 -1.4407e-16)
(39.348 -0.165572 0)
(37.3069 -1.0582 1.8937e-15)
(34.9136 -1.7994 3.50812e-15)
(32.2853 -2.38582 -6.12229e-15)
(29.6674 -2.81844 -5.16649e-15)
(27.2788 -3.11386 -1.05345e-16)
(25.1572 -3.29216 -6.88417e-15)
(23.1604 -3.36568 -5.29986e-15)
(21.1466 -3.33465 7.23621e-15)
(18.7618 -3.16049 0)
(16.2557 -2.79792 -5.01485e-16)
(10.6413 -2.06218 -8.92325e-15)
(7.26591 19.8224 -1.84273e-17)
(6.34446 18.0757 -6.53547e-17)
(5.5883 16.0246 2.65509e-16)
(4.99186 13.7329 0)
(4.70835 11.2759 4.92878e-16)
(4.78409 8.72806 0)
(5.24541 6.23498 3.77699e-15)
(6.04789 3.93209 2.09659e-15)
(7.16606 1.87351 1.71496e-15)
(8.54254 0.140731 0)
(10.0444 -1.21997 -2.41059e-15)
(11.559 -2.23524 -5.07958e-16)
(13.0218 -2.96249 2.28693e-15)
(14.3982 -3.45745 0)
(15.6704 -3.77141 -1.04607e-15)
(16.8376 -3.9477 -3.14831e-16)
(17.9076 -4.02345 1.28898e-15)
(18.8946 -4.02405 6.64749e-16)
(19.8158 -3.9672 1.80464e-16)
(20.6886 -3.8576 -9.88969e-17)
(21.5258 -3.6969 1.0035e-15)
(22.3362 -3.4764 0)
(23.1199 -3.18224 0)
(23.8571 -2.79376 2.69883e-17)
(24.5041 -2.32616 0)
(25.0366 -1.82919 5.17776e-16)
(25.4652 -1.32505 -6.42842e-18)
(25.8034 -0.818007 -2.33024e-17)
(26.0568 -0.303802 0)
(26.2254 0.219173 1.27904e-17)
(26.3115 0.750673 -3.34395e-17)
(26.3164 1.27914 0)
(26.24 1.78618 1.8458e-16)
(26.0819 2.25634 0)
(25.8326 2.68241 0)
(25.4927 3.06296 4.33254e-17)
(24.9612 3.40001 -6.19956e-17)
(24.3581 3.65422 3.20297e-15)
(22.5345 3.75681 1.05362e-14)
(10.8718 19.6259 -1.47026e-17)
(12.0883 20.9219 -1.35596e-17)
(13.5528 22.1891 5.07811e-18)
(15.2425 23.352 -2.0644e-18)
(17.1135 24.3216 0)
(19.1723 25.0795 0)
(21.3642 25.5806 -6.65582e-16)
(23.63 25.7896 8.0919e-16)
(25.9237 25.698 0)
(28.191 25.3065 -1.00492e-15)
(30.3809 24.6276 -1.28861e-15)
(32.4548 23.6822 -1.22053e-15)
(34.3771 22.5014 1.46659e-15)
(36.12 21.1221 1.38683e-15)
(37.6698 19.5782 0)
(38.9995 17.9133 2.21539e-15)
(40.0582 16.189 7.60043e-16)
(40.8374 14.4425 6.14915e-15)
(41.34 12.7092 3.72116e-16)
(41.6011 11.0214 -3.66751e-16)
(41.6921 9.40664 3.11092e-15)
(41.7329 7.87066 -5.07483e-16)
(41.8317 6.3598 2.79784e-15)
(41.9228 4.80254 1.18537e-15)
(41.7754 3.24377 -7.29331e-17)
(41.2985 1.83506 -1.09973e-15)
(40.6176 0.66569 8.02659e-18)
(39.8701 -0.299078 -8.09977e-18)
(39.0698 -1.13882 -1.7964e-15)
(38.0951 -1.88943 -4.7033e-17)
(36.7799 -2.54315 2.94059e-15)
(34.9814 -3.07571 -4.91223e-15)
(32.683 -3.46486 -3.87268e-15)
(30.0596 -3.70157 -1.27738e-18)
(27.3469 -3.79183 4.75945e-15)
(24.6706 -3.73858 0)
(21.7733 -3.52405 3.42743e-15)
(18.7886 -3.05503 4.13723e-16)
(13.2091 -2.37198 3.59863e-15)
(9.85558 18.2722 -3.14785e-17)
(8.94933 16.8081 8.91775e-17)
(8.1675 15.0839 3.76765e-16)
(7.52313 13.1398 0)
(7.14537 11.0469 -4.32487e-16)
(7.06729 8.85804 0)
(7.31362 6.67753 -2.74859e-15)
(7.85338 4.61317 -1.1193e-16)
(8.66799 2.73047 1.24388e-15)
(9.718 1.09724 1.08171e-15)
(10.9127 -0.242328 3.53341e-17)
(12.1703 -1.28616 1.79993e-15)
(13.4342 -2.06559 -1.15037e-15)
(14.6652 -2.62042 3.65447e-16)
(15.8377 -2.99013 1.23704e-15)
(16.9406 -3.21401 1.35411e-15)
(17.9723 -3.32584 -1.20606e-15)
(18.9377 -3.35217 8.45606e-18)
(19.8469 -3.31224 0)
(20.7116 -3.21499 1.23622e-15)
(21.5414 -3.06317 5.95933e-17)
(22.3425 -2.8508 -9.11211e-16)
(23.114 -2.56619 0)
(23.8393 -2.19135 2.72528e-17)
(24.4821 -1.73188 0)
(25.0184 -1.2257 -2.50739e-16)
(25.4534 -0.695856 0)
(25.7983 -0.153275 2.22359e-17)
(26.058 0.391274 -4.7228e-19)
(26.2351 0.922503 1.84845e-19)
(26.3352 1.42422 3.20315e-17)
(26.3646 1.88099 8.99338e-19)
(26.3271 2.2904 0)
(26.2241 2.65583 -3.97928e-17)
(26.046 2.98415 4.37652e-20)
(25.7885 3.27955 -4.60596e-16)
(25.3516 3.55039 3.91415e-15)
(24.8146 3.72627 1.00758e-17)
(23.1659 3.79171 0)
(12.4231 18.2791 -2.01671e-17)
(13.4475 19.4287 -5.9789e-18)
(14.6871 20.5747 8.74977e-18)
(16.1084 21.6532 9.088e-17)
(17.6737 22.583 -3.90437e-17)
(19.4036 23.3598 -1.68854e-16)
(21.2521 23.9432 2.83525e-16)
(23.1733 24.2977 0)
(25.1373 24.4131 1.15127e-15)
(27.098 24.2819 5.43106e-16)
(29.0146 23.9051 0)
(30.8527 23.2934 1.17355e-15)
(32.578 22.4653 -6.25499e-16)
(34.1623 21.4419 1.7458e-15)
(35.5854 20.2468 0)
(36.8242 18.9059 -2.93684e-15)
(37.8869 17.4164 2.77672e-15)
(38.7704 15.7952 -1.64606e-16)
(39.4668 14.0723 0)
(39.9668 12.2923 2.99933e-15)
(40.2704 10.4956 -3.01812e-15)
(40.392 8.72083 -1.56249e-16)
(40.3628 6.97505 -2.39198e-15)
(40.1856 5.25974 -2.25863e-15)
(39.8016 3.63444 0)
(39.1901 2.20067 0)
(38.4463 1.0053 -2.5813e-16)
(37.6965 0.00777293 -2.8632e-17)
(37.0013 -0.862278 1.76749e-15)
(36.3588 -1.64143 -4.65896e-17)
(35.7292 -2.33428 4.64601e-17)
(35.0293 -2.93871 4.82128e-15)
(34.0899 -3.4449 0)
(32.6797 -3.82374 1.26487e-14)
(30.6252 -4.03499 -4.17163e-17)
(27.9976 -4.04608 0)
(24.8362 -3.84406 -1.86843e-17)
(21.4477 -3.30473 0)
(15.7858 -2.63043 -3.10899e-15)
(11.5612 17.0846 3.22085e-17)
(10.7896 15.8057 -1.98334e-16)
(10.1035 14.2987 -4.50667e-17)
(9.51078 12.6021 8.62773e-16)
(9.12583 10.782 -1.36016e-15)
(8.97255 8.8704 -1.76926e-15)
(9.07812 6.94101 2.08148e-15)
(9.43337 5.08634 -2.13063e-15)
(10.0288 3.3745 -9.4286e-16)
(10.8341 1.85583 -8.29663e-16)
(11.7861 0.566757 1.59253e-15)
(12.8229 -0.481999 -1.51755e-15)
(13.8988 -1.30826 -6.60209e-16)
(14.9772 -1.93852 6.42593e-16)
(16.0312 -2.39864 -1.38461e-15)
(17.0452 -2.71849 2.55451e-16)
(18.0119 -2.92427 0)
(18.9304 -3.0378 -9.53062e-16)
(19.805 -3.07534 3.3618e-16)
(20.6428 -3.04629 -1.29802e-15)
(21.4503 -2.95367 0)
(22.2313 -2.79384 7.93164e-16)
(22.9839 -2.5583 6.18121e-16)
(23.6931 -2.23597 -4.55231e-16)
(24.3282 -1.83294 0)
(24.8659 -1.3814 -2.8235e-16)
(25.307 -0.906681 0)
(25.6601 -0.421457 0)
(25.9296 0.0649456 0)
(26.1173 0.542481 1.17608e-17)
(26.2268 1.00319 0)
(26.2639 1.44777 0)
(26.2323 1.8759 6.10079e-17)
(26.1356 2.2838 3.8631e-17)
(25.9681 2.66817 0)
(25.732 3.02489 -5.61563e-16)
(25.3399 3.35486 8.52846e-17)
(24.8789 3.5767 0)
(23.4896 3.69216 -5.27101e-15)
(13.9061 17.0938 2.50717e-17)
(14.8358 18.1114 -1.7817e-17)
(15.9568 19.1318 0)
(17.2374 20.0949 9.49213e-18)
(18.6412 20.9287 -9.21057e-17)
(20.1974 21.6341 1.58446e-16)
(21.8665 22.1724 4.59494e-17)
(23.6117 22.5114 -7.11887e-16)
(25.4126 22.6376 -9.15236e-17)
(27.2315 22.5394 1.10459e-15)
(29.0336 22.2119 -3.95271e-16)
(30.7891 21.658 9.02549e-16)
(32.465 20.887 4.5397e-16)
(34.0328 19.9128 3.2746e-16)
(35.4677 18.7536 0)
(36.7495 17.43 -6.34917e-16)
(37.8548 15.9752 -1.4026e-15)
(38.7533 14.4411 -5.15217e-15)
(39.4317 12.8682 1.52191e-15)
(39.8928 11.2865 -1.9269e-15)
(40.149 9.72025 -3.00894e-16)
(40.2217 8.17704 0)
(40.1238 6.6408 2.14436e-15)
(39.8404 5.0958 1.38674e-16)
(39.3372 3.58837 -6.43734e-17)
(38.6177 2.21874 -9.17961e-16)
(37.7587 1.05258 2.13421e-16)
(36.86 0.0747013 4.46344e-16)
(35.9758 -0.770355 -1.66938e-15)
(35.1164 -1.51794 -8.91078e-17)
(34.2884 -2.17725 2.85101e-15)
(33.5161 -2.75254 4.61255e-15)
(32.8074 -3.24859 0)
(32.1044 -3.6633 -1.96937e-17)
(31.1942 -3.97537 -4.82992e-15)
(29.7329 -4.12309 0)
(27.277 -4.03079 -6.41429e-15)
(24.0212 -3.50612 0)
(18.3813 -2.86204 2.81594e-15)
(13.1157 16.0399 -3.19453e-17)
(12.4046 14.9185 8.01362e-17)
(11.7586 13.5931 -1.97739e-16)
(11.1868 12.0974 0)
(10.7896 10.4943 5.75912e-16)
(10.5836 8.80481 2.88281e-15)
(10.5928 7.08179 0)
(10.8175 5.40821 -1.53667e-15)
(11.2515 3.85029 -1.45987e-15)
(11.8708 2.4448 1.456e-15)
(12.6303 1.22201 -5.74049e-17)
(13.4836 0.19748 6.29474e-16)
(14.3955 -0.637732 3.41064e-17)
(15.3349 -1.3002 1.64591e-15)
(16.2764 -1.80585 1.46865e-15)
(17.2033 -2.17616 -1.37457e-15)
(18.1052 -2.43112 1.92414e-16)
(18.9766 -2.58878 -3.57633e-16)
(19.8171 -2.66359 1.65491e-16)
(20.6294 -2.6652 9.56208e-16)
(21.4166 -2.59785 1.23507e-16)
(22.1799 -2.46033 -8.77214e-17)
(22.9159 -2.24665 -5.24244e-16)
(23.6111 -1.94903 0)
(24.2388 -1.5718 2.05614e-17)
(24.7768 -1.14052 5.30918e-16)
(25.2225 -0.678644 -2.52308e-18)
(25.582 -0.198465 2.52655e-18)
(25.8586 0.2911 0)
(26.0539 0.779514 -1.11121e-17)
(26.1712 1.25758 0)
(26.2156 1.71498 0)
(26.1908 2.142 -5.77256e-17)
(26.1 2.53278 3.18516e-17)
(25.9371 2.88598 0)
(25.7027 3.19825 5.33248e-16)
(25.3166 3.4757 -4.11595e-15)
(24.8523 3.62246 2.05406e-17)
(23.6229 3.66084 5.04105e-15)
(15.1082 16.0906 8.93341e-19)
(15.9435 17.0043 -1.66714e-17)
(16.9501 17.9278 1.19794e-17)
(18.0948 18.8051 -1.16224e-17)
(19.341 19.5721 6.44568e-17)
(20.7234 20.2355 0)
(22.2058 20.7614 -3.12251e-16)
(23.7571 21.1206 3.92123e-18)
(25.365 21.3019 -3.2869e-16)
(26.9974 21.2932 -6.68129e-16)
(28.6263 21.0868 0)
(30.2276 20.6821 -1.63681e-15)
(31.771 20.0831 -1.41449e-15)
(33.2297 19.2988 -3.45709e-15)
(34.5793 18.3427 0)
(35.7961 17.2333 -2.15665e-15)
(36.8588 15.9925 -2.27526e-15)
(37.7573 14.6302 2.43395e-15)
(38.482 13.1665 -2.39291e-15)
(39.0263 11.6326 2.22101e-15)
(39.3907 10.0615 2.74346e-16)
(39.5806 8.48379 -2.36089e-15)
(39.5978 6.91226 0)
(39.4203 5.35339 -2.08951e-15)
(39.0121 3.84975 1.25284e-16)
(38.3744 2.48111 9.55339e-16)
(37.573 1.30311 0)
(36.6948 0.30623 -3.26337e-17)
(35.7865 -0.556578 7.06882e-17)
(34.8511 -1.31729 2.72691e-15)
(33.885 -1.98338 -2.53426e-15)
(32.9037 -2.55673 -4.40796e-15)
(31.9391 -3.04158 3.73506e-15)
(31.0366 -3.44119 -6.5201e-17)
(30.2155 -3.75372 4.85879e-15)
(29.4273 -3.95884 6.43668e-15)
(28.1504 -3.99527 3.35064e-15)
(25.9289 -3.5863 -8.49955e-18)
(20.8207 -3.04449 -3.50761e-18)
(14.3923 15.1466 1.28309e-17)
(13.745 14.1482 1.52726e-16)
(13.1449 12.966 2.02955e-16)
(12.6008 11.6306 -3.90271e-16)
(12.2032 10.2028 -1.53902e-15)
(11.9647 8.69319 5.05515e-16)
(11.9077 7.14125 1.25073e-15)
(12.0381 5.62412 3.12078e-15)
(12.3517 4.20396 1.24672e-15)
(12.8292 2.90667 -1.1654e-15)
(13.4369 1.75762 -3.61397e-17)
(14.1394 0.773108 -5.56951e-16)
(14.9098 -0.0520852 0)
(15.7228 -0.728581 -2.57187e-17)
(16.5562 -1.26594 -9.0096e-16)
(17.3943 -1.67933 3.9188e-16)
(18.2257 -1.98325 -3.85041e-16)
(19.0421 -2.19132 0)
(19.8401 -2.31497 5.79514e-16)
(20.6188 -2.36251 -1.00554e-15)
(21.3784 -2.33776 0)
(22.118 -2.24036 7.30586e-16)
(22.8332 -2.06607 0)
(23.5111 -1.80996 -2.66732e-17)
(24.1285 -1.47621 2.66235e-17)
(24.6641 -1.08588 -2.61541e-16)
(25.1126 -0.661016 -4.90543e-18)
(25.4776 -0.214967 -2.65349e-18)
(25.7618 0.242146 4.98301e-19)
(25.966 0.699115 -2.58252e-17)
(26.0933 1.14512 -2.322e-17)
(26.1479 1.57252 1.65892e-17)
(26.1332 1.97786 9.8274e-20)
(26.0518 2.35766 3.29025e-17)
(25.8975 2.71047 0)
(25.6698 3.03175 1.22656e-17)
(25.2939 3.32302 1.93166e-15)
(24.8315 3.48699 -1.29648e-17)
(23.6966 3.53289 4.68643e-15)
(16.1623 15.2076 4.85392e-18)
(16.9279 16.0319 2.52973e-17)
(17.849 16.8687 0)
(18.8926 17.6653 -2.51533e-17)
(20.022 18.3636 1.58934e-17)
(21.2743 18.9741 0)
(22.6171 19.4655 -1.15623e-16)
(24.0231 19.8119 9.21305e-16)
(25.4857 20.0029 -1.29409e-15)
(26.9784 20.0258 4.12358e-16)
(28.4783 19.8715 5.69627e-16)
(29.9663 19.5358 2.07749e-15)
(31.4163 19.0181 1.49508e-15)
(32.8039 18.3217 1.79101e-15)
(34.1057 17.4544 4.75993e-16)
(35.2975 16.4285 1.5806e-15)
(36.3588 15.2591 2.17891e-15)
(37.2683 13.9718 2.08692e-15)
(38.0061 12.6017 -1.53272e-15)
(38.5634 11.1783 -4.68893e-15)
(38.9405 9.72776 0)
(39.1448 8.26831 8.6387e-17)
(39.1818 6.80687 1.85883e-15)
(39.0399 5.34801 1.98742e-15)
(38.691 3.92579 -1.14642e-16)
(38.1307 2.6088 -8.51447e-16)
(37.408 1.45253 6.12511e-18)
(36.5963 0.459013 -4.36403e-16)
(35.7389 -0.40682 4.61903e-17)
(34.8382 -1.17189 -5.06472e-15)
(33.8842 -1.84199 -8.96449e-18)
(32.8746 -2.41669 -6.89248e-17)
(31.8145 -2.89702 -3.56597e-15)
(30.7225 -3.28286 -6.42606e-17)
(29.6283 -3.57089 -4.58624e-15)
(28.6437 -3.7497 -1.26965e-14)
(27.7025 -3.80325 3.39252e-15)
(26.666 -3.50445 4.53464e-16)
(22.729 -3.13121 2.48897e-15)
(15.5013 14.3575 -5.57705e-17)
(14.9019 13.4619 -2.06178e-16)
(14.3374 12.3994 -1.47239e-16)
(13.8169 11.1971 -3.75003e-16)
(13.4222 9.91434 8.5289e-16)
(13.1623 8.5535 -6.08896e-17)
(13.0591 7.14584 -3.06881e-15)
(13.1205 5.76452 -1.05997e-15)
(13.343 4.46603 1.83704e-17)
(13.7114 3.26871 0)
(14.1991 2.19439 -9.86179e-16)
(14.7781 1.25851 9.18604e-16)
(15.4279 0.457335 -8.8352e-16)
(16.1288 -0.216284 -4.51917e-16)
(16.8623 -0.767536 3.76265e-16)
(17.6148 -1.20685 3.74527e-16)
(18.3752 -1.54381 1.33944e-15)
(19.1343 -1.78782 -3.17073e-16)
(19.8865 -1.9473 -5.37886e-16)
(20.6287 -2.02893 0)
(21.3585 -2.03595 -8.14683e-16)
(22.073 -1.96856 -6.02556e-16)
(22.7667 -1.8238 -1.31147e-17)
(23.4271 -1.59874 -6.45463e-17)
(24.0333 -1.29722 -2.03014e-17)
(24.5651 -0.936141 3.08539e-16)
(25.015 -0.535586 -5.51635e-18)
(25.3844 -0.109095 4.36116e-17)
(25.6747 0.333074 6.92349e-18)
(25.8865 0.77996 2.33488e-17)
(26.0218 1.22115 -1.29213e-17)
(26.0843 1.64842 -5.55331e-17)
(26.0771 2.05369 -5.9991e-17)
(26.0023 2.43085 -5.90923e-17)
(25.8543 2.77658 -5.33178e-18)
(25.6323 3.08341 3.46411e-18)
(25.2663 3.35171 -1.98911e-15)
(24.8145 3.47466 -3.07887e-15)
(23.7607 3.46376 -4.31635e-15)
(17.0736 14.4272 -1.49074e-17)
(17.779 15.1756 -9.77093e-18)
(18.6264 15.9382 -2.94839e-17)
(19.5827 16.6659 3.97617e-17)
(20.6115 17.305 3.365e-17)
(21.7507 17.8692 -1.24341e-16)
(22.9703 18.3303 4.29241e-16)
(24.2461 18.665 0)
(25.5752 18.8655 3.93293e-16)
(26.9349 18.9196 1.33182e-17)
(28.3068 18.8181 -4.87286e-16)
(29.6761 18.5558 -1.91088e-15)
(31.0204 18.1298 -7.80586e-16)
(32.3181 17.5405 0)
(33.5476 16.7923 0)
(34.6859 15.894 0)
(35.7109 14.8593 0)
(36.6033 13.7052 -2.03118e-15)
(37.348 12.4485 2.00349e-15)
(37.9329 11.1125 1.9624e-15)
(38.3525 9.72302 -1.5838e-15)
(38.6058 8.3053 1.39543e-15)
(38.6919 6.87754 -1.45453e-15)
(38.6006 5.45529 -1.07325e-16)
(38.3114 4.071 -5.00778e-17)
(37.8214 2.78037 8.56768e-16)
(37.1706 1.63219 1.85366e-16)
(36.4228 0.634132 0)
(35.6205 -0.240191 0)
(34.771 -1.01408 4.11686e-17)
(33.867 -1.69328 0)
(32.9039 -2.27698 3.75504e-15)
(31.8765 -2.76486 -3.33878e-15)
(30.7797 -3.15401 -5.37853e-15)
(29.5978 -3.43669 8.4914e-15)
(28.3851 -3.59508 6.06321e-15)
(27.139 -3.61116 -3.30705e-15)
(26.4818 -3.31747 -9.39782e-16)
(23.8206 -3.09192 -2.50474e-15)
(16.4608 13.6561 0)
(15.9032 12.8467 5.76712e-17)
(15.3708 11.8844 2.79546e-16)
(14.8729 10.794 -1.20514e-15)
(14.4847 9.63294 1.06078e-15)
(14.2115 8.39748 -8.34821e-16)
(14.0757 7.11309 1.13076e-17)
(14.0862 5.84988 8.06896e-16)
(14.2392 4.65889 8.49837e-16)
(14.5228 3.55335 0)
(14.9151 2.55181 4.06069e-16)
(15.3932 1.6685 -1.24051e-15)
(15.9414 0.89987 1.96082e-15)
(16.5442 0.240513 3.56123e-16)
(17.1868 -0.312573 -7.23867e-16)
(17.8582 -0.766374 -6.72674e-16)
(18.5484 -1.12697 -6.16945e-16)
(19.2483 -1.40035 0)
(19.9517 -1.5921 0)
(20.6537 -1.70687 0)
(21.35 -1.74701 7.60349e-16)
(22.0362 -1.71256 0)
(22.7058 -1.60129 -4.86495e-16)
(23.3469 -1.41152 -6.20078e-17)
(23.9399 -1.14677 -3.65618e-16)
(24.4657 -0.82091 -2.70993e-16)
(24.9152 -0.45203 0)
(25.2877 -0.053773 -3.59012e-17)
(25.5835 0.36322 -7.30901e-18)
(25.8026 0.787818 1.33948e-18)
(25.9464 1.20915 7.83467e-17)
(26.0179 1.61806 -2.19402e-17)
(26.0197 2.00824 5.72385e-17)
(25.9536 2.37398 -1.18868e-16)
(25.8138 2.71174 0)
(25.5993 3.01347 -1.21655e-17)
(25.2446 3.2771 -5.32976e-17)
(24.805 3.39619 2.917e-15)
(23.8297 3.37215 -2.51241e-17)
(17.8753 13.7278 1.69111e-17)
(18.5304 14.4103 0)
(19.3164 15.1075 7.33632e-17)
(20.2 15.7733 -3.92364e-17)
(21.1455 16.3581 -2.34543e-17)
(22.1908 16.8774 1.16239e-16)
(23.3078 17.3054 -1.885e-16)
(24.4743 17.6218 -2.33915e-16)
(25.6904 17.8201 0)
(26.9365 17.889 -4.19885e-16)
(28.1977 17.8197 -4.53271e-16)
(29.463 17.6062 4.5002e-16)
(30.7132 17.2439 1.69328e-15)
(31.9303 16.7305 6.83522e-16)
(33.0947 16.0671 -2.07595e-15)
(34.1847 15.2587 -1.50482e-15)
(35.1792 14.3145 1.19193e-15)
(36.0588 13.2477 8.861e-16)
(36.8046 12.0789 -4.37453e-16)
(37.4015 10.832 4.38759e-16)
(37.841 9.53028 1.11312e-15)
(38.1202 8.19491 2.07326e-16)
(38.2362 6.84279 -1.98256e-16)
(38.1807 5.49022 -1.32965e-15)
(37.9382 4.16611 0)
(37.5056 2.91757 -7.17894e-16)
(36.9144 1.79004 -3.45637e-16)
(36.2191 0.797328 -3.19372e-16)
(35.4603 -0.0782489 -1.18313e-15)
(34.6495 -0.855772 4.44011e-15)
(33.7841 -1.54033 1.83317e-15)
(32.8626 -2.13084 5.95445e-18)
(31.8819 -2.62639 4.10896e-17)
(30.8358 -3.02327 0)
(29.6948 -3.31199 -3.96466e-15)
(28.4688 -3.46894 0)
(27.015 -3.47189 0)
(26.0921 -3.12512 4.70236e-16)
(24.2057 -2.94969 5.15107e-18)
(17.303 13.025 -5.68169e-17)
(16.781 12.2893 1.9069e-16)
(16.2767 11.413 1.3031e-17)
(15.7995 10.4184 2.67849e-16)
(15.4195 9.36089 -9.59122e-16)
(15.139 8.23251 6.92073e-16)
(14.9799 7.05483 3.26468e-17)
(14.9522 5.89511 -6.69156e-16)
(15.0521 4.79931 -6.54479e-16)
(15.2692 3.77713 -6.96434e-16)
(15.5851 2.8447 -1.37824e-15)
(15.9808 2.01485 0)
(16.4436 1.28355 -7.05727e-16)
(16.9614 0.646073 -2.47124e-17)
(17.5226 0.100801 0)
(18.1186 -0.35736 -5.92091e-16)
(18.7412 -0.731786 -2.82261e-16)
(19.3823 -1.02589 -2.65307e-16)
(20.0354 -1.2428 9.13353e-16)
(20.6948 -1.38512 8.14282e-16)
(21.3553 -1.45382 -8.40156e-17)
(22.0112 -1.44862 6.27635e-16)
(22.6552 -1.36758 1.22331e-16)
(23.2754 -1.2096 -5.94286e-17)
(23.8539 -0.977874 3.23763e-16)
(24.3719 -0.683799 1.97484e-17)
(24.8193 -0.343258 0)
(25.1935 0.0304425 0)
(25.4938 0.426518 -1.45965e-18)
(25.7193 0.833957 3.42023e-18)
(25.8707 1.2418 -9.95406e-17)
(25.9503 1.64085 -2.13598e-17)
(25.9602 2.02319 1.30277e-16)
(25.902 2.38171 1.12295e-16)
(25.7699 2.71169 7.76701e-18)
(25.5627 3.00309 4.4834e-18)
(25.2199 3.25174 3.70111e-15)
(24.7943 3.34842 -2.78295e-15)
(23.8978 3.29349 2.33238e-17)
(18.5836 13.0962 6.50317e-18)
(19.1952 13.7211 0)
(19.9279 14.3605 -4.1554e-17)
(20.7489 14.9713 0)
(21.6224 15.5075 -6.08894e-17)
(22.5867 15.9857 5.89021e-17)
(23.6146 16.3824 1.42418e-16)
(24.6858 16.6796 2.19899e-16)
(25.8021 16.8722 0)
(26.9464 16.9503 -2.75377e-16)
(28.1067 16.9059 4.62819e-16)
(29.2749 16.7328 -9.5293e-16)
(30.4348 16.4259 -5.34961e-16)
(31.5711 15.9814 -5.46931e-16)
(32.6668 15.3983 1.31963e-15)
(33.7021 14.679 1.43363e-15)
(34.657 13.8298 -1.54352e-15)
(35.5121 12.8617 -1.54557e-15)
(36.2495 11.7885 0)
(36.8533 10.6286 4.02771e-16)
(37.3122 9.40267 -7.79879e-16)
(37.6193 8.13259 1.9078e-16)
(37.7689 6.83864 2.72386e-18)
(37.7525 5.541 3.13402e-15)
(37.5577 4.26704 -1.73495e-16)
(37.1816 3.05608 1.08254e-16)
(36.6486 1.94862 3.1817e-16)
(36.0046 0.962018 3.37466e-16)
(35.2871 0.0858652 1.01381e-15)
(34.5102 -0.694635 -2.03486e-15)
(33.6748 -1.3836 -1.67288e-15)
(32.782 -1.97951 -6.57157e-15)
(31.832 -2.48093 5.66018e-15)
(30.8235 -2.88385 -8.03239e-17)
(29.7323 -3.17919 3.67359e-15)
(28.569 -3.33979 -1.12692e-16)
(27.1439 -3.35218 6.19976e-17)
(25.923 -2.97005 4.79393e-18)
(24.2689 -2.75842 -2.11146e-15)
(18.0468 12.453 2.81695e-17)
(17.5561 11.7808 -9.76348e-17)
(17.0771 10.9789 1.91184e-16)
(16.6193 10.0674 0)
(16.2485 9.0993 5.5615e-16)
(15.965 8.0634 0)
(15.7895 6.97928 0)
(15.733 5.91075 0)
(15.7917 4.89956 1.20978e-15)
(15.9563 3.95294 -5.95702e-16)
(16.211 3.0852 6.73526e-16)
(16.5391 2.3079 0)
(16.9303 1.61631 0)
(17.375 1.00567 -6.05573e-16)
(17.864 0.474989 0)
(18.3911 0.0203604 5.48977e-16)
(18.9499 -0.360222 1.23036e-17)
(19.5334 -0.668088 0)
(20.1358 -0.904339 -6.49719e-16)
(20.7512 -1.06987 -9.60504e-16)
(21.3738 -1.16445 -6.67336e-16)
(21.9972 -1.18707 -5.77803e-16)
(22.6137 -1.1356 9.86155e-16)
(23.2118 -1.00914 0)
(23.7739 -0.810504 3.26502e-16)
(24.2822 -0.548932 2.98458e-16)
(24.7258 -0.238334 1.09753e-16)
(25.1004 0.108523 0)
(25.404 0.480794 -7.73794e-18)
(25.6353 0.867501 -4.43816e-17)
(25.794 1.25765 1.14768e-16)
(25.8817 1.64146 -2.04477e-17)
(25.9002 2.01115 -1.17498e-16)
(25.8504 2.35934 1.57998e-16)
(25.7265 2.68068 -2.51561e-18)
(25.5273 2.964 7.88043e-18)
(25.1973 3.20283 -3.59795e-15)
(24.786 3.28855 2.57735e-15)
(23.9645 3.21569 6.62387e-15)
(19.2142 12.5214 3.21499e-18)
(19.7877 13.0953 -1.91697e-17)
(20.4739 13.6834 0)
(21.2404 14.2446 -2.43405e-17)
(22.0519 14.7367 0)
(22.946 15.1766 0)
(23.8967 15.5431 1.99902e-17)
(24.8851 15.8199 1.9232e-16)
(25.9141 16.0033 4.47864e-16)
(26.9686 16.0845 1.15628e-15)
(28.0389 16.0564 6.59656e-16)
(29.1192 15.9133 7.66341e-16)
(30.196 15.6495 0)
(31.2566 15.2602 1.5077e-15)
(32.2863 14.743 -5.35319e-16)
(33.2674 14.098 0)
(34.1815 13.3289 1.28564e-15)
(35.0097 12.4433 1.47406e-15)
(35.7345 11.4529 0)
(36.3387 10.3741 1.42704e-15)
(36.8086 9.22622 -1.39783e-15)
(37.1354 8.02909 0)
(37.3116 6.80253 -1.6801e-16)
(37.3289 5.56731 2.9282e-17)
(37.1772 4.34878 8.12249e-17)
(36.8535 3.18024 1.23361e-15)
(36.3761 2.09795 -4.44372e-18)
(35.7827 1.1221 -3.30349e-17)
(35.1074 0.24888 -2.76765e-17)
(34.3653 -0.532232 6.13773e-17)
(33.5595 -1.22392 1.67155e-15)
(32.6924 -1.82388 5.89511e-15)
(31.7654 -2.32992 4.78177e-17)
(30.7801 -2.73728 -4.27202e-15)
(29.7188 -3.0374 -3.30775e-15)
(28.5988 -3.20045 -4.81911e-15)
(27.276 -3.22277 -2.72925e-15)
(25.9649 -2.83981 1.97545e-17)
(24.3101 -2.56247 1.97823e-15)
(18.7084 11.9305 -6.31932e-17)
(18.2454 11.3141 -2.32624e-16)
(17.7894 10.5773 4.59052e-16)
(17.35 9.73872 0)
(16.9887 8.84846 8.82114e-16)
(16.7052 7.8936 0)
(16.5185 6.89218 -4.74941e-16)
(16.4401 5.90449 1.90356e-15)
(16.4668 4.96876 -1.46973e-15)
(16.5898 4.09081 0)
(16.7949 3.28313 1.08643e-15)
(17.0675 2.55622 1.04946e-15)
(17.3987 1.90478 0)
(17.7808 1.32396 -1.0332e-15)
(18.2064 0.812751 2.49518e-16)
(18.6712 0.367569 -2.49886e-16)
(19.1705 -0.0126476 2.42881e-16)
(19.6988 -0.327933 4.25938e-16)
(20.2511 -0.5779 -1.62449e-17)
(20.8219 -0.761947 5.14212e-16)
(21.4053 -0.878625 1.50874e-16)
(21.9947 -0.926111 -1.45448e-16)
(22.5824 -0.901983 -4.65826e-16)
(23.1568 -0.80509 3.99501e-16)
(23.7011 -0.63764 -2.87711e-16)
(24.198 -0.40714 -3.00551e-16)
(24.636 -0.125542 -1.03461e-16)
(25.0095 0.195172 -1.12458e-18)
(25.3153 0.544284 8.44787e-18)
(25.5514 0.911032 4.19732e-17)
(25.7166 1.28445 1.0679e-17)
(25.8121 1.6546 -1.96337e-17)
(25.8387 2.01309 1.8455e-16)
(25.797 2.35164 -1.59744e-16)
(25.6816 2.66392 8.33694e-18)
(25.4908 2.93733 -6.45193e-16)
(25.1745 3.16334 1.7328e-15)
(24.779 3.23451 0)
(24.0292 3.14251 -6.28192e-15)
(19.7782 11.9951 1.06173e-17)
(20.3181 12.5237 0)
(20.9631 13.0655 0)
(21.6815 13.5822 2.38177e-17)
(22.4386 14.0344 -2.05271e-17)
(23.271 14.439 0)
(24.1538 14.7768 0)
(25.0692 15.0334 -6.23202e-16)
(26.021 15.2059 -3.17712e-17)
(26.9955 15.2868 -3.90754e-17)
(27.9847 15.2699 -1.52396e-15)
(28.9848 15.1497 -4.01609e-16)
(29.9844 14.921 7.68161e-16)
(30.973 14.5786 -6.55597e-17)
(31.9385 14.1188 0)
(32.8649 13.5404 0)
(33.7356 12.8449 -3.51616e-15)
(34.5327 12.0375 -6.50915e-16)
(35.2393 11.1273 6.64121e-16)
(35.8383 10.1271 -1.38209e-15)
(36.3146 9.05344 2.63121e-15)
(36.6572 7.92528 1.2507e-15)
(36.8571 6.76251 -1.21693e-15)
(36.9058 5.58671 -1.38608e-15)
(36.7944 4.42175 2.21121e-16)
(36.5197 3.29575 -1.20684e-15)
(36.0954 2.24077 -1.36998e-16)
(35.552 1.27859 3.05022e-17)
(34.9196 0.410796 -3.06726e-17)
(34.214 -0.36896 1.027e-16)
(33.4398 -1.06189 -4.264e-17)
(32.6 -1.66487 -2.88645e-15)
(31.6967 -2.17469 -1.07988e-16)
(30.7319 -2.58578 1.27318e-16)
(29.6917 -2.88943 0)
(28.5924 -3.05443 4.44044e-15)
(27.3407 -3.07925 2.53315e-15)
(26.0741 -2.71285 0)
(24.4234 -2.37963 0)
(19.3003 11.4507 0)
(18.862 10.8835 2.07247e-16)
(18.4272 10.2043 -6.83458e-16)
(18.0051 9.43016 -3.29606e-16)
(17.6537 8.60859 -7.96604e-16)
(17.3723 7.72532 0)
(17.1783 6.79749 0)
(17.0835 5.88194 -8.48533e-16)
(17.0851 5.01401 8.85087e-16)
(17.1747 4.1983 0)
(17.3395 3.44601 -4.58048e-16)
(17.5664 2.76685 -4.93366e-16)
(17.8473 2.15514 4.66379e-16)
(18.1758 1.60552 4.82953e-16)
(18.546 1.11675 -8.96797e-16)
(18.955 0.685421 0)
(19.3996 0.310761 -2.01984e-16)
(19.8757 -0.00652956 1.29792e-17)
(20.3792 -0.265141 8.94862e-16)
(20.9057 -0.463322 -1.64621e-16)
(21.4493 -0.598516 1.58068e-16)
(22.0037 -0.66814 -1.20426e-16)
(22.5612 -0.669291 1.70692e-16)
(23.1107 -0.600414 -8.08172e-16)
(23.6357 -0.462908 -2.85891e-16)
(24.1195 -0.262693 2.45147e-16)
(24.5502 -0.00998972 -1.4965e-17)
(24.921 0.284171 0)
(25.2279 0.609361 -8.28407e-18)
(25.4678 0.955037 4.77755e-17)
(25.6391 1.31035 -6.39111e-17)
(25.7418 1.66511 1.02737e-16)
(25.7764 2.01068 -3.84487e-16)
(25.7432 2.3383 4.2231e-16)
(25.6364 2.64086 -6.56837e-18)