/*--------------------------------*- C++ -*----------------------------------*\
| =========                 |                                                 |
| \\      /  F ield         | OpenFOAM: The Open Source CFD Toolbox           |
|  \\    /   O peration     | Version:  2312                                  |
|   \\  /    A nd           | Website:  www.openfoam.com                      |
|    \\/     M anipulation  |                                                 |
\*---------------------------------------------------------------------------*/
FoamFile
{
    version     2.0;
    format      ascii;
    arch        "LSB;label=32;scalar=64";
    class       volScalarField;
    location    "500";
    object      div(phi);
}
// * * * * * * * * * * * * * * * * * * * * * * * * * * * * * * * * * * * * * //

dimensions      [0 0 -1 0 0 0 0];

internalField   nonuniform List<scalar> 
27
(
-2.80848
14.4288
-5.53486
-13.9753
26.0931
5.22973
26.5273
21.1864
32.0208
32.1056
-44.4764
-18.5374
-66.9973
-34.4166
-51.1626
-40.1299
-18.3906
-28.1141
9.65388
27.4715
-5.63616
52.1879
78.449
30.6325
22.7243
7.72315
2.12385
)
;

boundaryField
{
    aggregate
    {
        type            extrapolatedCalculated;
        value           nonuniform List<scalar> 
24
(
-2.80848
-2.80848
-2.80848
14.4288
14.4288
14.4288
-13.9753
-13.9753
-13.9753
26.0931
26.0931
26.0931
32.1056
32.1056
32.1056
-44.4764
-44.4764
-44.4764
-66.9973
-66.9973
-66.9973
-34.4166
-34.4166
-34.4166
)
;
    }
    XY-Zmin
    {
        type            extrapolatedCalculated;
        value           nonuniform List<scalar> 9(-2.80848 -13.9753 26.5273 32.1056 -66.9973 -40.1299 9.65388 52.1879 22.7243);
    }
    YZ-Xmin
    {
        type            extrapolatedCalculated;
        value           nonuniform List<scalar> 9(-2.80848 14.4288 -5.53486 -13.9753 26.0931 5.22973 26.5273 21.1864 32.0208);
    }
    XZ-Ymin
    {
        type            extrapolatedCalculated;
        value           nonuniform List<scalar> 9(-2.80848 14.4288 -5.53486 32.1056 -44.4764 -18.5374 9.65388 27.4715 -5.63616);
    }
    XY-Zmax
    {
        type            extrapolatedCalculated;
        value           nonuniform List<scalar> 9(-5.53486 5.22973 32.0208 -18.5374 -51.1626 -28.1141 -5.63616 30.6325 2.12385);
    }
    XZ-Ymax
    {
        type            extrapolatedCalculated;
        value           nonuniform List<scalar> 9(26.5273 21.1864 32.0208 -40.1299 -18.3906 -28.1141 22.7243 7.72315 2.12385);
    }
    YZ-Xmax
    {
        type            extrapolatedCalculated;
        value           nonuniform List<scalar> 9(9.65388 27.4715 -5.63616 52.1879 78.449 30.6325 22.7243 7.72315 2.12385);
    }
}


// ************************************************************************* //
