/*--------------------------------*- C++ -*----------------------------------*\
| =========                 |                                                 |
| \\      /  F ield         | OpenFOAM: The Open Source CFD Toolbox           |
|  \\    /   O peration     | Version:  2312                                  |
|   \\  /    A nd           | Website:  www.openfoam.com                      |
|    \\/     M anipulation  |                                                 |
\*---------------------------------------------------------------------------*/
FoamFile
{
    version     2.0;
    format      ascii;
    arch        "LSB;label=32;scalar=64";
    class       volScalarField;
    location    "500";
    object      magR;
}
// * * * * * * * * * * * * * * * * * * * * * * * * * * * * * * * * * * * * * //

dimensions      [0 2 -2 0 0 0 0];

internalField   nonuniform List<scalar> 
27
(
0.0449162
0.0279027
0.0299338
0.0299171
0.0126196
0.0357011
0.0577261
0.0377494
0.0448668
0.0370317
0.0372353
0.108348
0.0549996
0.0291297
0.0462925
0.058492
0.00888974
0.0321826
0.00309424
0.000787949
0.000375191
0.00047254
0.00156317
0.0323148
0.0650354
0.154772
0.587884
)
;

boundaryField
{
    aggregate
    {
        type            calculated;
        value           nonuniform List<scalar> 
24
(
2.30037
2.3801
2.19267
2.16116
2.28897
2.11987
2.29326
2.4968
2.29269
2.17962
2.32964
2.11575
1.38375
1.40511
1.31929
1.55701
1.66259
1.56139
1.81795
1.97101
1.79616
1.88643
2.02058
1.81933
)
;
    }
    XY-Zmin
    {
        type            calculated;
        value           nonuniform List<scalar> 9(2.09912 2.04399 1.7699 1.24751 1.63763 2.13276 1.02463 0.983678 1.64027);
    }
    YZ-Xmin
    {
        type            calculated;
        value           nonuniform List<scalar> 9(0.0333088 0.025182 0.0297718 0.0268239 0.0162764 0.0227292 0.034802 0.0254174 0.0339567);
    }
    XZ-Ymin
    {
        type            calculated;
        value           nonuniform List<scalar> 9(2.08364 1.86586 1.51683 1.23473 1.35971 1.42021 1.00293 0.720421 0.800474);
    }
    XY-Zmax
    {
        type            calculated;
        value           nonuniform List<scalar> 9(1.49229 1.47513 1.70683 1.45132 1.72089 1.93856 0.841386 1.34764 2.25946);
    }
    XZ-Ymax
    {
        type            calculated;
        value           nonuniform List<scalar> 9(1.75943 1.58988 1.7334 2.17965 1.88796 1.96728 1.72179 2.00964 2.31761);
    }
    YZ-Xmax
    {
        type            calculated;
        value           nonuniform List<scalar> 9(0.00324047 0.000799726 0.000374098 0.000463629 0.00161455 0.0318655 0.0629051 0.1458 0.581095);
    }
}


// ************************************************************************* //
