/*--------------------------------*- C++ -*----------------------------------*\
| =========                 |                                                 |
| \\      /  F ield         | OpenFOAM: The Open Source CFD Toolbox           |
|  \\    /   O peration     | Version:  2312                                  |
|   \\  /    A nd           | Website:  www.openfoam.com                      |
|    \\/     M anipulation  |                                                 |
\*---------------------------------------------------------------------------*/
FoamFile
{
    version     2.0;
    format      ascii;
    arch        "LSB;label=32;scalar=64";
    class       volVectorField;
    location    "500";
    object      momentError;
}
// * * * * * * * * * * * * * * * * * * * * * * * * * * * * * * * * * * * * * //

dimensions      [0 1 -2 0 0 0 0];

internalField   nonuniform List<vector> 
27
(
(-0.0110406 0.000136135 0.00120187)
(-0.0171855 0.0026266 -0.000985693)
(-0.0190034 -0.00451319 -0.00121975)
(0.150332 0.00371236 -0.187112)
(-0.0204083 -0.00297046 -0.00787142)
(1.52803 0.0570023 -1.60263)
(-1.20625 -0.763506 2.29755)
(2.33598 0.0953144 -2.49057)
(2.18511 0.292326 -0.41272)
(-0.080686 -0.0136572 0.000291304)
(-61.7506 -7.47666 -3.59377)
(-0.0831824 -0.0400765 0.0166144)
(-89.7179 -20.0088 21.74)
(-95.0933 -3.23166 -29.4302)
(-38.4625 -1.70869 -17.6854)
(-56.7107 -7.96726 23.2426)
(-156.358 -24.5528 -27.8295)
(-53.3214 -24.065 -23.6776)
(-453.199 -128.134 -39.4872)
(-1164.7 -84.1018 -97.3185)
(-898.354 -70.1106 -100.921)
(-1664.34 -192.913 84.8833)
(-1511.96 -345.326 -131.01)
(-918.442 -374.382 -233.857)
(-1060.74 -649.87 -57.615)
(-50.3737 -809.766 -45.1701)
(547.482 -545.144 37.7664)
)
;

boundaryField
{
    aggregate
    {
        type            calculated;
        value           nonuniform List<vector> 
24
(
(-86.9309 -70.5563 102.523)
(625.804 -11.0167 -0.602583)
(-86.9309 17.7444 16.0027)
(437.452 -271.595 578.906)
(1159.02 50.5101 21.007)
(437.452 135.769 70.232)
(-444.101 -97.9331 84.601)
(436.57 -50.0697 1.69936)
(-444.101 -345.177 -168.676)
(799.266 -186.352 500.97)
(1676.61 87.0804 27.367)
(799.266 -61.6726 -58.5164)
(746.451 92.5299 66.8869)
(1220.34 114.896 28.1476)
(746.451 266.921 115.919)
(-1199.45 -5.57645 -256.34)
(-1085.03 -123.153 -52.693)
(-1199.45 -327.48 -170.664)
(-1973.14 -229.423 192.896)
(-1906.4 -143.589 44.2285)
(-1973.14 -556.132 -193.947)
(-1077.03 -28.035 -73.9313)
(-935.471 -46.8334 -41.3712)
(-1077.03 -626.048 -375.785)
)
;
    }
    XY-Zmin
    {
        type            calculated;
        value           nonuniform List<vector> 9((-86.9309 -11.0167 119.128) (-444.101 -50.0697 -85.7777) (726.791 84.5953 11.4008) (746.451 114.896 154.658) (-1973.14 -143.589 -45.2835) (-1296.82 -80.0673 45.9934) (-249.781 -118.87 -217.277) (-539.781 -279.451 38.4195) (-447.797 -686.827 30.9112));
    }
    YZ-Xmin
    {
        type            calculated;
        value           nonuniform List<vector> 9((708.56 -0.84589 -0.599647) (794.429 -1.71359 20.9049) (-6.49629 4.45631 -7.43403) (807.982 0.518376 1.6902) (1017.47 -7.34089 27.2341) (360.951 -9.42069 4.61082) (801.025 -11.3818 2.16363) (817.588 -4.73192 1.18763) (864.68 -38.9492 3.82186));
    }
    XZ-Ymin
    {
        type            calculated;
        value           nonuniform List<vector> 9((-86.9309 -41.7949 -0.602583) (437.452 -186.339 21.007) (-141.802 -321.632 -7.47032) (746.451 244.554 28.1476) (-1199.45 -209.903 -52.693) (-457.021 -1.85009 -8.65004) (-249.781 -482.053 -41.1382) (-658.053 -296.279 -119.039) (-1000.89 -243.701 -97.8206));
    }
    XY-Zmax
    {
        type            calculated;
        value           nonuniform List<vector> 9((-141.802 -15.5581 453.326) (143.718 9.46483 449.202) (875.915 76.7748 67.8242) (-457.021 -51.9565 -434.501) (-1531.58 -75.0356 -331.778) (-879.25 -76.6859 68.5621) (-1000.89 -76.8563 -112.18) (-138.198 -393.859 -188.082) (616.267 -545.155 97.8757));
    }
    XZ-Ymax
    {
        type            calculated;
        value           nonuniform List<vector> 9((726.791 -208.263 2.16297) (587.687 -101.529 1.20561) (875.915 -455.87 3.8425) (-1296.82 -667.483 18.5566) (-711.628 -518.425 -36.3741) (-879.25 -152.897 -33.9542) (-447.797 -645.513 -51.5778) (193.007 -652.353 -37.6535) (616.267 -368.938 39.6209));
    }
    YZ-Xmax
    {
        type            calculated;
        value           nonuniform List<vector> 9((-443.339 -128.145 -39.4879) (-1851.41 -84.3005 -97.3694) (-1198.33 -70.0666 -100.911) (-2919.36 -194.58 84.8429) (-2773.57 -348.174 -131.274) (-1767.4 -375.013 -233.856) (-1596.76 -650.592 -57.5784) (-367.967 -809.887 -45.1434) (301.356 -545.157 37.7695));
    }
}


// ************************************************************************* //
