/*--------------------------------*- C++ -*----------------------------------*\
| =========                 |                                                 |
| \\      /  F ield         | OpenFOAM: The Open Source CFD Toolbox           |
|  \\    /   O peration     | Version:  2312                                  |
|   \\  /    A nd           | Website:  www.openfoam.com                      |
|    \\/     M anipulation  |                                                 |
\*---------------------------------------------------------------------------*/
FoamFile
{
    version     2.0;
    format      ascii;
    arch        "LSB;label=32;scalar=64";
    class       volScalarField;
    location    "500";
    object      nut;
}
// * * * * * * * * * * * * * * * * * * * * * * * * * * * * * * * * * * * * * //

dimensions      [0 2 -1 0 0 0 0];

internalField   nonuniform List<scalar> 
27
(
1.25745e-05
9.75281e-06
5.67109e-06
1.07222e-05
9.31134e-06
1.33341e-05
1.55499e-05
1.28274e-05
1.07714e-05
1.37803e-05
2.09924e-05
5.32644e-05
3.34502e-05
3.00732e-05
1.96501e-05
1.44492e-05
7.4045e-07
5.10611e-06
1.17707e-07
1.40776e-08
1.6322e-09
4.01032e-09
4.87568e-07
1.32948e-05
2.15659e-05
0.000120146
0.000326756
)
;

boundaryField
{
    aggregate
    {
        type            nutUSpaldingWallFunction;
        value           nonuniform List<scalar> 
24
(
0.00151989
0.00015904
0.00114859
0.00112896
0.000156174
0.00149397
0.00117274
0.000162563
0.00155175
0.00150509
0.000157406
0.0011374
0.00120447
0.00012419
0.000909723
0.000979288
0.000134338
0.00129634
0.00105553
0.000145463
0.00139698
0.00141284
0.000147212
0.00106754
)
;
    }
    XY-Zmin
    {
        type            nutUSpaldingWallFunction;
        value           nonuniform List<scalar> 9(0.00205354 0.00207761 0.00196504 0.00162361 0.00186848 0.00216073 0.00156887 0.00160093 0.00192887);
    }
    YZ-Xmin
    {
        type            freestream;
        freestreamValue uniform 1e-05;
        value           uniform 1e-05;
    }
    XZ-Ymin
    {
        type            nutUSpaldingWallFunction;
        value           nonuniform List<scalar> 9(0.0020345 0.00201816 0.00185601 0.0016086 0.00174871 0.00179623 0.00156887 0.00140456 0.00139016);
    }
    XY-Zmax
    {
        type            nutUSpaldingWallFunction;
        value           nonuniform List<scalar> 9(0.00185601 0.00194381 0.00195076 0.00179623 0.00206004 0.00207193 0.00139016 0.0018364 0.00224475);
    }
    XZ-Ymax
    {
        type            nutUSpaldingWallFunction;
        value           nonuniform List<scalar> 9(0.00196504 0.00197722 0.00195076 0.00216073 0.00212239 0.00207193 0.00192887 0.00219475 0.00224475);
    }
    YZ-Xmax
    {
        type            freestream;
        freestreamValue uniform 1e-05;
        value           nonuniform List<scalar> 9(1.17707e-07 1.40776e-08 1.6322e-09 4.01032e-09 4.87568e-07 1.32948e-05 2.15659e-05 0.000120146 0.000326756);
    }
}


// ************************************************************************* //
