/*--------------------------------*- C++ -*----------------------------------*\
| =========                 |                                                 |
| \\      /  F ield         | OpenFOAM: The Open Source CFD Toolbox           |
|  \\    /   O peration     | Version:  2312                                  |
|   \\  /    A nd           | Website:  www.openfoam.com                      |
|    \\/     M anipulation  |                                                 |
\*---------------------------------------------------------------------------*/
FoamFile
{
    version     2.0;
    format      ascii;
    arch        "LSB;label=32;scalar=64";
    class       volScalarField;
    location    "500";
    object      nuTilda;
}
// * * * * * * * * * * * * * * * * * * * * * * * * * * * * * * * * * * * * * //

dimensions      [0 2 -1 0 0 0 0];

internalField   nonuniform List<scalar> 
27
(
4.95558e-05
4.5885e-05
3.92469e-05
4.72052e-05
4.5259e-05
5.04659e-05
5.29786e-05
4.98619e-05
4.72704e-05
5.09879e-05
5.85074e-05
8.46705e-05
6.93481e-05
6.65657e-05
5.721e-05
5.17546e-05
2.28765e-05
3.81139e-05
1.43562e-05
8.42864e-06
4.91669e-06
6.15615e-06
2.05617e-05
5.04195e-05
5.90511e-05
0.000136904
0.00033001
)
;

boundaryField
{
    aggregate
    {
        type            fixedValue;
        value           uniform 0;
    }
    XY-Zmin
    {
        type            fixedValue;
        value           uniform 0;
    }
    YZ-Xmin
    {
        type            freestream;
        freestreamValue uniform 4e-05;
        value           uniform 4e-05;
    }
    XZ-Ymin
    {
        type            fixedValue;
        value           uniform 0;
    }
    XY-Zmax
    {
        type            fixedValue;
        value           uniform 0;
    }
    XZ-Ymax
    {
        type            fixedValue;
        value           uniform 0;
    }
    YZ-Xmax
    {
        type            freestream;
        freestreamValue uniform 4e-05;
        value           nonuniform List<scalar> 9(1.43562e-05 8.42864e-06 4.91669e-06 6.15615e-06 2.05617e-05 5.04195e-05 5.90511e-05 0.000136904 0.00033001);
    }
}


// ************************************************************************* //
