/*--------------------------------*- C++ -*----------------------------------*\
| =========                 |                                                 |
| \\      /  F ield         | OpenFOAM: The Open Source CFD Toolbox           |
|  \\    /   O peration     | Version:  2312                                  |
|   \\  /    A nd           | Website:  www.openfoam.com                      |
|    \\/     M anipulation  |                                                 |
\*---------------------------------------------------------------------------*/
FoamFile
{
    version     2.0;
    format      ascii;
    arch        "LSB;label=32;scalar=64";
    class       volScalarField;
    location    "500";
    object      p;
}
// * * * * * * * * * * * * * * * * * * * * * * * * * * * * * * * * * * * * * //

dimensions      [0 2 -2 0 0 0 0];

internalField   nonuniform List<scalar> 
27
(
99.3314
69.7324
-18.8923
106.867
128.285
42.3226
163.495
161.648
148.851
-68.2617
-99.5369
-17.6333
-100.007
-78.091
-27.6546
13.5783
8.09094
-12.4123
-23.939
11.2887
14.1606
48.6976
56.6556
47.5295
40.4349
23.9371
12.2862
)
;

boundaryField
{
    aggregate
    {
        type            zeroGradient;
    }
    XY-Zmin
    {
        type            zeroGradient;
    }
    YZ-Xmin
    {
        type            freestreamPressure;
        freestreamValue uniform 0;
        value           nonuniform List<scalar> 9(98.8483 69.3936 -18.8005 106.348 127.662 42.1176 162.701 160.862 148.129);
    }
    XZ-Ymin
    {
        type            zeroGradient;
    }
    XY-Zmax
    {
        type            zeroGradient;
    }
    XZ-Ymax
    {
        type            zeroGradient;
    }
    YZ-Xmax
    {
        type            freestreamPressure;
        freestreamValue uniform 0;
        value           nonuniform List<scalar> 9(-0.0104804 0.0264502 0.0456561 0.294795 0.388291 0.230278 0.244955 0.0851612 0.0205851);
    }
}


// ************************************************************************* //
