/*--------------------------------*- C++ -*----------------------------------*\
| =========                 |                                                 |
| \\      /  F ield         | OpenFOAM: The Open Source CFD Toolbox           |
|  \\    /   O peration     | Version:  2312                                  |
|   \\  /    A nd           | Website:  www.openfoam.com                      |
|    \\/     M anipulation  |                                                 |
\*---------------------------------------------------------------------------*/
FoamFile
{
    version     2.0;
    format      ascii;
    arch        "LSB;label=32;scalar=64";
    class       surfaceScalarField;
    location    "500";
    object      phi;
}
// * * * * * * * * * * * * * * * * * * * * * * * * * * * * * * * * * * * * * //

dimensions      [0 3 -1 0 0 0 0];

oriented        oriented;

internalField   nonuniform List<scalar> 
54
(
0.004534
0.0232242
0.0284171
-0.00213502
0.0208334
0.0207945
0.0218841
0.0273514
0.000301736
0.0320091
0.00301257
0.0115002
0.2221
0.0139862
0.230655
-0.0044069
0.253344
0.248528
0.0271728
0.000544869
0.246174
0.0157299
0.00197237
0.293895
0.0232441
0.310768
0.00447129
0.00239239
0.307686
0.00999406
0.00607442
0.303739
0.0143226
0.209034
-0.0100763
0.194401
-0.00430021
0.207156
0.212062
-0.0151508
-0.00503556
0.220368
-0.0154844
-0.000475093
0.253626
-0.00467499
0.272717
-0.00965779
0.00752766
0.295607
-0.00444036
0.00961074
0.296022
0.00350252
)
;

boundaryField
{
    aggregate
    {
        type            calculated;
        value           uniform 0;
    }
    XY-Zmin
    {
        type            calculated;
        value           uniform 0;
    }
    YZ-Xmin
    {
        type            calculated;
        value           nonuniform List<scalar> 9(-0.257509 -0.257553 -0.257539 -0.257556 -0.257448 -0.257487 -0.257191 -0.257201 -0.257205);
    }
    XZ-Ymin
    {
        type            calculated;
        value           uniform 0;
    }
    XY-Zmax
    {
        type            calculated;
        value           uniform 0;
    }
    XZ-Ymax
    {
        type            calculated;
        value           uniform 0;
    }
    YZ-Xmax
    {
        type            calculated;
        value           nonuniform List<scalar> 9(0.243914 0.231581 0.201894 0.263793 0.283213 0.275606 0.278256 0.296807 0.311259);
    }
}


// ************************************************************************* //
