/*--------------------------------*- C++ -*----------------------------------*\
| =========                 |                                                 |
| \\      /  F ield         | OpenFOAM: The Open Source CFD Toolbox           |
|  \\    /   O peration     | Version:  2312                                  |
|   \\  /    A nd           | Website:  www.openfoam.com                      |
|    \\/     M anipulation  |                                                 |
\*---------------------------------------------------------------------------*/
FoamFile
{
    version     2.0;
    format      ascii;
    arch        "LSB;label=32;scalar=64";
    class       volScalarField;
    location    "500";
    object      turbulenceProperties:epsilon;
}
// * * * * * * * * * * * * * * * * * * * * * * * * * * * * * * * * * * * * * //

dimensions      [0 2 -3 0 0 0 0];

internalField   nonuniform List<scalar> 
27
(
1.08073
0.42816
0.50666
0.487985
0.0879373
0.677658
1.73262
0.761426
1.09691
0.726227
0.681937
4.24813
1.31295
0.382188
1.0684
1.79888
0.0405794
0.586632
0.00404216
0.000202858
3.51998e-05
6.24484e-05
0.0012057
0.555466
2.06731
5.29443
31.1905
)
;

boundaryField
{
    aggregate
    {
        type            calculated;
        value           uniform 0;
    }
    XY-Zmin
    {
        type            calculated;
        value           uniform 0;
    }
    YZ-Xmin
    {
        type            calculated;
        value           nonuniform List<scalar> 9(0.568045 0.325051 0.452618 0.368775 0.136326 0.263822 0.618479 0.329899 0.588807);
    }
    XZ-Ymin
    {
        type            calculated;
        value           uniform 0;
    }
    XY-Zmax
    {
        type            calculated;
        value           uniform 0;
    }
    XZ-Ymax
    {
        type            calculated;
        value           uniform 0;
    }
    YZ-Xmax
    {
        type            calculated;
        value           nonuniform List<scalar> 9(0.00443323 0.000208967 3.4995e-05 6.01152e-05 0.00128607 0.540068 1.93425 4.69759 30.4737);
    }
}


// ************************************************************************* //
