/*--------------------------------*- C++ -*----------------------------------*\
| =========                 |                                                 |
| \\      /  F ield         | OpenFOAM: The Open Source CFD Toolbox           |
|  \\    /   O peration     | Version:  2312                                  |
|   \\  /    A nd           | Website:  www.openfoam.com                      |
|    \\/     M anipulation  |                                                 |
\*---------------------------------------------------------------------------*/
FoamFile
{
    version     2.0;
    format      ascii;
    arch        "LSB;label=32;scalar=64";
    class       volSymmTensorField;
    location    "500";
    object      turbulenceProperties:R;
}
// * * * * * * * * * * * * * * * * * * * * * * * * * * * * * * * * * * * * * //

dimensions      [0 2 -2 0 0 0 0];

internalField   nonuniform List<symmTensor> 
27
(
(0.0270132 -0.00309068 -0.00319038 0.0246798 -0.00038352 0.0252766)
(0.0169298 -0.00226779 -0.000805036 0.0153154 -0.000158258 0.0156764)
(0.0172751 -0.00145134 0.00154025 0.0169439 0.000107603 0.0173646)
(0.0177432 -0.000709635 -0.00269865 0.0167495 -0.00028929 0.0168502)
(0.00785936 -0.000598123 -0.000775691 0.00689772 1.37046e-05 0.00692731)
(0.0198302 0.000154701 0.00371461 0.0205343 0.000427072 0.0207765)
(0.0318455 0.00478957 -0.00429051 0.0339669 -0.000525069 0.0328811)
(0.0207371 0.00383142 -3.0814e-05 0.0224085 0.0001339 0.021528)
(0.0251328 0.0030937 0.00293078 0.0261384 0.000382726 0.0257205)
(0.0210202 -0.00279999 -0.0027286 0.021004 -0.0003764 0.0213888)
(0.021001 -0.00445175 -0.00167925 0.0209034 -0.000243373 0.0215193)
(0.0635059 -0.0139073 0.013893 0.0572964 0.00103468 0.0604021)
(0.0296878 -0.00355602 -0.00767922 0.0316661 -0.000305094 0.0315822)
(0.0150668 -0.00282147 -0.00279044 0.017245 -4.38798e-05 0.0171068)
(0.0263794 -0.000225332 0.00578515 0.0262244 0.000274746 0.0263099)
(0.0332602 0.0046066 -0.00443348 0.0337186 -0.00032657 0.0331083)
(0.00510121 0.000232683 2.68728e-06 0.00515742 2.7095e-06 0.00512813)
(0.0182513 0.00155622 0.00150198 0.0186805 0.000147242 0.0185541)
(0.00178738 -2.34886e-05 -2.26172e-05 0.00178555 -7.02869e-07 0.00178586)
(0.000455535 -2.7628e-06 3.40417e-07 0.000454661 7.35098e-08 0.000454554)
(0.000216696 -3.43377e-07 3.07256e-07 0.000216583 1.85731e-08 0.00021657)
(0.000272958 -4.69208e-08 -8.96279e-07 0.000272791 5.81061e-08 0.000272712)
(0.000918911 -2.46131e-05 -7.46545e-06 0.00089735 -6.79252e-06 0.000890202)
(0.0187457 -0.000808786 0.00328655 0.0184123 -0.000248314 0.0181878)
(0.0377958 0.00559428 -0.00632226 0.0362369 0.000276486 0.0366781)
(0.0849105 0.0346648 -0.00355371 0.0834718 -0.000684068 0.0857172)
(0.311025 0.0975741 0.103574 0.318691 0.000118712 0.326819)
)
;

boundaryField
{
    aggregate
    {
        type            calculated;
        value           nonuniform List<symmTensor> 
24
(
(0.223001 -1.20562 1.05552 -0.269524 0.126277 0.0465228)
(1.93599 0.143102 -0.0295435 -0.971772 -0.00485069 -0.964223)
(-0.020271 1.38354 0.670359 0.184353 0.0983923 -0.164082)
(0.0896557 0.507486 -1.42686 0.0823013 -0.14016 -0.171957)
(1.86248 0.122248 0.0557502 -0.934132 -0.00253423 -0.928351)
(-0.0054323 1.25252 0.800406 0.111991 0.159749 -0.106558)
(0.138166 -0.98235 1.27187 -0.174618 0.146281 0.0364518)
(2.02972 0.157769 -0.0477021 -1.01562 -0.00438604 -1.0141)
(0.173568 -1.22372 -1.03776 -0.226069 -0.108636 0.0525013)
(0.0671056 0.635027 -1.39275 0.0810696 -0.125841 -0.148175)
(1.89468 0.141138 0.0364352 -0.947591 0.000231672 -0.947091)
(0.181042 -1.2577 -0.778709 -0.19917 -0.116662 0.0181276)
(0.0168741 -0.740838 0.620778 -0.137735 0.0790527 0.120861)
(-1.13099 -0.156794 -0.0566972 0.563762 -0.00339217 0.567231)
(-0.118325 0.822692 0.401568 0.17268 0.0937872 -0.0543547)
(-0.0160212 0.346483 -1.03816 0.0917188 -0.0843917 -0.0756976)
(-1.34733 -0.132397 -0.0555867 0.671694 -0.00155743 0.675635)
(-0.102273 0.922819 0.587824 0.118652 0.0971531 -0.0163787)
(-0.00111433 -0.820983 0.985304 -0.0344974 0.0799998 0.0356117)
(-1.60522 -0.0975796 -0.0191181 0.802793 -0.00132674 0.802428)
(-0.0134591 -0.98164 -0.801704 -0.063238 -0.0413983 0.0766971)
(-0.0824075 0.50294 -1.23181 0.0786089 -0.0501037 0.00379865)
(-1.64735 -0.071878 -0.029673 0.824013 -0.000214797 0.823337)
(-0.0157993 -1.09483 -0.673336 -0.0278329 -0.0385964 0.0436322)
)
;
    }
    XY-Zmin
    {
        type            calculated;
        value           nonuniform List<symmTensor> 9((0.218596 -0.504737 -1.37103 -0.162478 -0.173214 -0.0561184) (0.112631 -0.137504 -1.42644 -0.0799074 -0.158873 -0.0327239) (-0.134225 0.605255 -1.07964 0.133855 -0.127881 0.00036974) (-0.00222456 -0.329897 -0.808014 -0.00413397 -0.128014 0.00635853) (-0.0812379 -0.198634 -1.13655 0.0292667 -0.0680895 0.0519712) (-0.0161017 0.688869 -1.33836 0.0524533 -0.0801747 -0.0363516) (0.0163429 -0.313069 -0.652651 -0.00805801 -0.0277665 -0.0082849) (0.0554439 -0.0187309 -0.691679 -0.0111171 0.0495979 -0.0443267) (0.078667 0.500357 -1.04196 -0.0607615 0.064067 -0.0179055));
    }
    YZ-Xmin
    {
        type            calculated;
        value           nonuniform List<symmTensor> 9((0.0177451 -0.0026149 -0.00253641 0.0193554 -0.000304997 0.0198301) (0.0133015 -0.00245191 -0.00102744 0.0146969 -0.000162269 0.0150671) (0.0170348 -0.00247907 0.00253758 0.0165208 0.000189739 0.0172626) (0.0136521 -0.00083502 -0.00250816 0.0160623 -0.000269805 0.0161562) (0.00803783 -0.000798246 -0.000997837 0.00991005 1.47182e-05 0.00994183) (0.0124622 0.000278961 0.00265933 0.0130771 0.000320285 0.0132587) (0.0191306 0.00304909 -0.00275258 0.0204859 -0.000337666 0.0197876) (0.0137437 0.00296459 -2.68754e-05 0.0151641 0.000104386 0.0144777) (0.018763 0.00296885 0.0027193 0.0197933 0.000355317 0.0194053));
    }
    XZ-Ymin
    {
        type            calculated;
        value           nonuniform List<symmTensor> 9((0.293382 -1.34515 -0.516188 -0.305798 -0.0708787 0.0124162) (0.261307 -1.28005 -0.166587 -0.263242 -0.0751275 0.00193517) (0.0674118 -0.935844 0.504088 -0.164092 0.00872569 0.0966806) (0.0458221 -0.801077 -0.318516 -0.134682 -0.0709875 0.0888598) (0.0349095 -0.944543 -0.139885 -0.112997 -0.0512882 0.0780871) (0.146416 -0.871035 0.468512 -0.188161 0.0316444 0.0417453) (0.0386185 -0.639906 -0.301454 -0.0569645 -0.00634672 0.0183459) (0.0770752 -0.503151 0.0339642 -0.0561876 0.020545 -0.0208876) (0.087789 -0.494768 0.261693 -0.0678511 0.027324 -0.0199379));
    }
    XY-Zmax
    {
        type            calculated;
        value           nonuniform List<symmTensor> 9((0.0103728 -0.474989 0.93415 -0.098051 0.0807098 0.0876783) (-0.0966347 0.0225518 1.03539 0.00600121 0.0817588 0.0906335) (-0.09765 0.560285 1.05973 0.0844836 0.10613 0.0131664) (0.103055 -0.468996 0.902585 -0.106348 0.0870641 0.00329282) (-0.011382 -0.023623 1.21464 -0.0276276 0.0601001 0.0390096) (-0.10338 0.631475 1.2097 0.0707805 0.0921306 0.0325993) (0.0721886 -0.292458 0.512856 -0.0246974 0.0370679 -0.0474912) (0.0379465 -0.111717 0.94502 -0.00810898 -0.0364223 -0.0298376) (-0.0660408 0.670316 1.44836 -0.0133756 0.00961992 0.0794165));
    }
    XZ-Ymax
    {
        type            calculated;
        value           nonuniform List<symmTensor> 9((-0.172661 1.10037 -0.542189 0.214456 -0.0651322 -0.0417943) (-0.171578 1.10598 -0.00474967 0.22125 0.0150969 -0.0496715) (-0.131089 1.09353 0.530779 0.155735 0.0615573 -0.0246463) (-0.0408023 1.38777 -0.66298 0.104324 -0.0412564 -0.0635221) (-0.123643 1.32611 0.0077027 0.170121 0.0189257 -0.0464776) (-0.127897 1.24217 0.609465 0.132909 0.0603239 -0.00501178) (0.100508 1.07295 -0.565468 -0.101043 0.0336492 0.00053574) (0.00914292 1.41902 -0.0649172 -0.0330221 0.0249314 0.0238792) (-0.0583636 1.47495 0.711536 0.00822472 0.0301636 0.0501389));
    }
    YZ-Xmax
    {
        type            calculated;
        value           nonuniform List<symmTensor> 9((0.00187002 -2.50858e-05 -2.32556e-05 0.00187085 -7.02869e-07 0.00187116) (0.000461638 -2.91445e-06 2.02109e-07 0.000461809 7.35098e-08 0.000461701) (0.000215995 -3.56593e-07 2.98921e-07 0.000215987 1.85731e-08 0.000215974) (0.00026763 -1.20908e-07 -8.91997e-07 0.000267737 5.81061e-08 0.000267659) (0.000929533 -3.22174e-05 -9.59619e-06 0.000936412 -6.79252e-06 0.000929263) (0.0181589 -0.000949065 0.00321768 0.0183194 -0.000248314 0.018095) (0.0360256 0.00521833 -0.00630585 0.0353109 0.000276486 0.035752) (0.0810837 0.03267 -0.003244 0.07801 -0.000684068 0.0802553) (0.313944 0.0944879 0.104408 0.311704 0.000118712 0.319832));
    }
}


// ************************************************************************* //
