/*--------------------------------*- C++ -*----------------------------------*\
| =========                 |                                                 |
| \\      /  F ield         | OpenFOAM: The Open Source CFD Toolbox           |
|  \\    /   O peration     | Version:  2312                                  |
|   \\  /    A nd           | Website:  www.openfoam.com                      |
|    \\/     M anipulation  |                                                 |
\*---------------------------------------------------------------------------*/
FoamFile
{
    version     2.0;
    format      ascii;
    arch        "LSB;label=32;scalar=64";
    class       volSymmTensorField;
    location    "500";
    object      turbulenceProperties:devReff;
}
// * * * * * * * * * * * * * * * * * * * * * * * * * * * * * * * * * * * * * //

dimensions      [0 2 -2 0 0 0 0];

internalField   nonuniform List<symmTensor> 
27
(
(0.00243556 -0.00554856 -0.00572755 -0.00175357 -0.000688517 -0.000681993)
(0.00193615 -0.00459307 -0.00163048 -0.00133369 -0.000320528 -0.00060246)
(0.00022278 -0.00401053 0.00425622 -0.000692687 0.000297341 0.000469908)
(0.00121544 -0.00137147 -0.00521554 -0.000704953 -0.000559095 -0.000510485)
(0.00130916 -0.00124048 -0.00160875 -0.000685263 2.84227e-05 -0.000623893)
(-0.000962668 0.00027072 0.00650039 0.000269408 0.000747357 0.00069326)
(-0.00172907 0.00786968 -0.00704969 0.00175657 -0.000862735 -2.75011e-05)
(-0.0014606 0.00681833 -5.48359e-05 0.00151377 0.000238285 -5.31664e-05)
(-0.00102424 0.00596584 0.00565167 0.000915095 0.000738043 0.000109147)
(-0.000202756 -0.00483187 -0.00470868 -0.000230722 -0.000649544 0.000433478)
(-0.000207075 -0.0065724 -0.00247918 -0.000351086 -0.000359307 0.000558161)
(0.00368729 -0.0165183 0.0165013 -0.00368802 0.00122893 7.2961e-07)
(-0.0016768 -0.00461911 -0.00997494 0.000892911 -0.000396302 0.000783886)
(-0.00187361 -0.00375967 -0.00371832 0.0010289 -5.84708e-05 0.000844706)
(0.000112877 -0.000340005 0.00872923 -0.000120945 0.000414565 8.06783e-06)
(-0.000172879 0.00779473 -0.00750179 0.000602838 -0.000552582 -0.000429959)
(-0.000401966 0.00337513 3.89798e-05 0.000413432 3.93021e-05 -1.1466e-05)
(-0.000721903 0.00460398 0.00444351 0.000547871 0.000435607 0.000174032)
(9.60338e-05 -0.00201899 -0.00194409 -6.13287e-05 -6.04161e-05 -3.47051e-05)
(0.000440141 -0.00196531 0.000242155 -0.000181835 5.22909e-05 -0.000258306)
(0.000490701 -0.00210411 0.00188277 -0.000206353 0.000113811 -0.000284348)
(0.000342886 -0.000117047 -0.00223583 -7.30451e-05 0.000144949 -0.000269841)
(0.000360428 -0.000529427 -0.000160582 -0.000103332 -0.000146107 -0.000257096)
(0.000520567 -0.00141713 0.00575861 -6.36485e-05 -0.000435088 -0.000456919)
(0.00130593 0.00818832 -0.00925386 -0.000975816 0.000404691 -0.000330111)
(0.000228176 0.03755 -0.00384949 -0.00133019 -0.000741005 0.00110201)
(-0.00805941 0.10056 0.106744 -0.000158627 0.000122345 0.00821804)
)
;

boundaryField
{
    aggregate
    {
        type            calculated;
        value           nonuniform List<symmTensor> 
24
(
(0.224468 -1.21355 1.06246 -0.271297 0.127108 0.0468289)
(2.05772 0.152099 -0.0314011 -1.03287 -0.00515569 -1.02485)
(-0.0204475 1.39558 0.676195 0.185958 0.099249 -0.165511)
(0.0904498 0.511981 -1.4395 0.0830303 -0.141401 -0.17348)
(1.98174 0.130075 0.0593199 -0.993946 -0.0026965 -0.987794)
(-0.00546866 1.2609 0.805763 0.11274 0.160818 -0.107272)
(0.139344 -0.990726 1.28272 -0.176107 0.147528 0.0367627)
(2.15457 0.167474 -0.0506364 -1.0781 -0.00465584 -1.07648)
(0.174686 -1.2316 -1.04445 -0.227526 -0.109336 0.0528396)
(0.0675515 0.639246 -1.402 0.0816083 -0.126677 -0.14916)
(2.01505 0.150104 0.0387499 -1.00779 0.000246391 -1.00726)
(0.182634 -1.26876 -0.785556 -0.200921 -0.117688 0.0182869)
(0.0170142 -0.746989 0.625932 -0.138878 0.0797091 0.121864)
(-1.22206 -0.169419 -0.0612626 0.609158 -0.00366531 0.612906)
(-0.119626 0.831736 0.405983 0.174578 0.0948181 -0.0549522)
(-0.0161848 0.350022 -1.04876 0.0926554 -0.0852535 -0.0764706)
(-1.44762 -0.142252 -0.0597246 0.721694 -0.00167336 0.725929)
(-0.103062 0.929938 0.592358 0.119567 0.0979026 -0.016505)
(-0.00112489 -0.828761 0.994638 -0.0348242 0.0807577 0.0359491)
(-1.71557 -0.104288 -0.0204324 0.857982 -0.00141795 0.857592)
(-0.0135555 -0.988667 -0.807443 -0.0636906 -0.0416946 0.0772461)
(-0.0829908 0.5065 -1.24053 0.0791653 -0.0504583 0.00382554)
(-1.75925 -0.0767606 -0.0316887 0.879988 -0.000229388 0.879265)
(-0.0159473 -1.10509 -0.679643 -0.0280937 -0.0389579 0.044041)
)
;
    }
    XY-Zmin
    {
        type            calculated;
        value           nonuniform List<symmTensor> 9((0.21966 -0.507194 -1.37771 -0.163269 -0.174057 -0.0563916) (0.113173 -0.138166 -1.4333 -0.080292 -0.159638 -0.0328814) (-0.134908 0.608335 -1.08513 0.134536 -0.128531 0.000371621) (-0.00223826 -0.331929 -0.81299 -0.00415943 -0.128803 0.00639769) (-0.0816727 -0.199697 -1.14263 0.0294233 -0.0684539 0.0522494) (-0.0161762 0.692057 -1.34455 0.0526961 -0.0805458 -0.0365198) (0.0164471 -0.315065 -0.656811 -0.00810937 -0.0279435 -0.00833771) (0.0557902 -0.0188479 -0.695999 -0.0111866 0.0499077 -0.0446036) (0.0790749 0.502951 -1.04736 -0.0610765 0.0643992 -0.0179983));
    }
    YZ-Xmin
    {
        type            calculated;
        value           nonuniform List<symmTensor> 9((-0.00246355 -0.0052298 -0.00507282 0.000757091 -0.000609995 0.00170646) (-0.00210738 -0.00490382 -0.00205488 0.0006835 -0.000324539 0.00142388) (0.000190831 -0.00495813 0.00507516 -0.000837288 0.000379478 0.000646457) (-0.00327612 -0.00167004 -0.00501632 0.00154422 -0.00053961 0.00173191) (-0.00251748 -0.00159649 -0.00199567 0.00122696 2.94363e-05 0.00129052) (-0.000940889 0.000557922 0.00531865 0.0002888 0.000640569 0.000652089) (-0.00134161 0.00609818 -0.00550517 0.00136907 -0.000675333 -2.74622e-05) (-0.00143626 0.00592918 -5.37508e-05 0.00140456 0.000208771 3.17043e-05) (-0.00111505 0.0059377 0.00543859 0.000945534 0.000710634 0.000169517));
    }
    XZ-Ymin
    {
        type            calculated;
        value           nonuniform List<symmTensor> 9((0.294824 -1.35176 -0.518725 -0.307301 -0.0712271 0.0124773) (0.262602 -1.2864 -0.167412 -0.264546 -0.0754998 0.00194475) (0.067775 -0.940886 0.506804 -0.164977 0.0087727 0.0972015) (0.0461069 -0.806057 -0.320496 -0.135519 -0.0714288 0.0894122) (0.0351091 -0.949945 -0.140685 -0.113643 -0.0515815 0.0785336) (0.147231 -0.875885 0.47112 -0.189209 0.0318205 0.0419777) (0.0388647 -0.643984 -0.303376 -0.0573275 -0.00638718 0.0184628) (0.077624 -0.506733 0.034206 -0.0565877 0.0206912 -0.0210363) (0.0884205 -0.498327 0.263575 -0.0683392 0.0275205 -0.0200813));
    }
    XY-Zmax
    {
        type            calculated;
        value           nonuniform List<symmTensor> 9((0.0104286 -0.477548 0.939183 -0.0985793 0.0811447 0.0881507) (-0.0971319 0.0226678 1.04071 0.00603208 0.0821794 0.0910998) (-0.0981506 0.563157 1.06516 0.0849167 0.106674 0.0132339) (0.103629 -0.471607 0.90761 -0.10694 0.0875488 0.00331115) (-0.0114372 -0.0237376 1.22054 -0.0277617 0.0603918 0.0391989) (-0.103879 0.634523 1.21554 0.0711221 0.0925753 0.0327567) (0.0727079 -0.294562 0.516545 -0.0248751 0.0373345 -0.0478328) (0.0381532 -0.112325 0.950166 -0.00815313 -0.0366206 -0.03) (-0.066335 0.673303 1.45481 -0.0134352 0.00966277 0.0797702));
    }
    XZ-Ymax
    {
        type            calculated;
        value           nonuniform List<symmTensor> 9((-0.17354 1.10597 -0.544949 0.215547 -0.0654636 -0.042007) (-0.172446 1.11157 -0.00477369 0.222369 0.0151732 -0.0499228) (-0.131761 1.09913 0.5335 0.156533 0.0618728 -0.0247726) (-0.0409912 1.39419 -0.666049 0.104807 -0.0414473 -0.063816) (-0.124226 1.33236 0.007739 0.170922 0.0190149 -0.0466966) (-0.128514 1.24817 0.612407 0.13355 0.0606151 -0.00503597) (0.101029 1.07852 -0.568399 -0.101567 0.0338236 0.000538517) (0.00918458 1.42549 -0.065213 -0.0331726 0.025045 0.023988) (-0.0586236 1.48152 0.714706 0.00826136 0.030298 0.0503623));
    }
    YZ-Xmax
    {
        type            calculated;
        value           nonuniform List<symmTensor> 9((-5.65456e-05 -0.00215629 -0.00199897 1.4961e-05 -6.04161e-05 4.15846e-05) (-5.5375e-05 -0.00207319 0.000143769 6.59233e-05 5.22909e-05 -1.05483e-05) (5.69057e-05 -0.00218509 0.0018317 1.05445e-05 0.000113811 -6.74502e-05) (-0.000113653 -0.000301613 -0.00222514 0.000155224 0.000144949 -4.15715e-05) (-4.73819e-05 -0.000692996 -0.000206414 0.000100573 -0.000146107 -5.31909e-05) (-5.64267e-05 -0.00166293 0.00563792 0.000224848 -0.000435088 -0.000168422) (0.000482189 0.00763805 -0.00922985 -0.000563947 0.000404691 8.17579e-05) (0.00140896 0.0353892 -0.003514 -0.00192058 -0.000741005 0.000511622) (-0.00125327 0.0973796 0.107604 -0.0035617 0.000122345 0.00481497));
    }
}


// ************************************************************************* //
