/*--------------------------------*- C++ -*----------------------------------*\
| =========                 |                                                 |
| \\      /  F ield         | OpenFOAM: The Open Source CFD Toolbox           |
|  \\    /   O peration     | Version:  2312                                  |
|   \\  /    A nd           | Website:  www.openfoam.com                      |
|    \\/     M anipulation  |                                                 |
\*---------------------------------------------------------------------------*/
FoamFile
{
    version     2.0;
    format      ascii;
    arch        "LSB;label=32;scalar=64";
    class       volScalarField;
    location    "500";
    object      turbulenceProperties:nuEff;
}
// * * * * * * * * * * * * * * * * * * * * * * * * * * * * * * * * * * * * * //

dimensions      [0 2 -1 0 0 0 0];

internalField   nonuniform List<scalar> 
27
(
2.25745e-05
1.97528e-05
1.56711e-05
2.07222e-05
1.93113e-05
2.33341e-05
2.55499e-05
2.28274e-05
2.07714e-05
2.37803e-05
3.09924e-05
6.32644e-05
4.34502e-05
4.00732e-05
2.96501e-05
2.44492e-05
1.07404e-05
1.51061e-05
1.01177e-05
1.00141e-05
1.00016e-05
1.0004e-05
1.04876e-05
2.32948e-05
3.15659e-05
0.000130146
0.000336756
)
;

boundaryField
{
    aggregate
    {
        type            calculated;
        value           nonuniform List<scalar> 
24
(
0.00152989
0.00016904
0.00115859
0.00113896
0.000166174
0.00150397
0.00118274
0.000172563
0.00156175
0.00151509
0.000167406
0.0011474
0.00121447
0.00013419
0.000919723
0.000989288
0.000144338
0.00130634
0.00106553
0.000155463
0.00140698
0.00142284
0.000157212
0.00107754
)
;
    }
    XY-Zmin
    {
        type            calculated;
        value           nonuniform List<scalar> 9(0.00206354 0.00208761 0.00197504 0.00163361 0.00187848 0.00217073 0.00157887 0.00161093 0.00193887);
    }
    YZ-Xmin
    {
        type            calculated;
        value           uniform 2e-05;
    }
    XZ-Ymin
    {
        type            calculated;
        value           nonuniform List<scalar> 9(0.0020445 0.00202816 0.00186601 0.0016186 0.00175871 0.00180623 0.00157887 0.00141456 0.00140016);
    }
    XY-Zmax
    {
        type            calculated;
        value           nonuniform List<scalar> 9(0.00186601 0.00195381 0.00196076 0.00180623 0.00207004 0.00208193 0.00140016 0.0018464 0.00225475);
    }
    XZ-Ymax
    {
        type            calculated;
        value           nonuniform List<scalar> 9(0.00197504 0.00198722 0.00196076 0.00217073 0.00213239 0.00208193 0.00193887 0.00220475 0.00225475);
    }
    YZ-Xmax
    {
        type            calculated;
        value           nonuniform List<scalar> 9(1.01177e-05 1.00141e-05 1.00016e-05 1.0004e-05 1.04876e-05 2.32948e-05 3.15659e-05 0.000130146 0.000336756);
    }
}


// ************************************************************************* //
