/*--------------------------------*- C++ -*----------------------------------*\
| =========                 |                                                 |
| \\      /  F ield         | OpenFOAM: The Open Source CFD Toolbox           |
|  \\    /   O peration     | Version:  2312                                  |
|   \\  /    A nd           | Website:  www.openfoam.com                      |
|    \\/     M anipulation  |                                                 |
\*---------------------------------------------------------------------------*/
FoamFile
{
    version     2.0;
    format      ascii;
    arch        "LSB;label=32;scalar=64";
    class       volVectorField;
    location    "500";
    object      U;
}
// * * * * * * * * * * * * * * * * * * * * * * * * * * * * * * * * * * * * * //

dimensions      [0 1 -1 0 0 0 0];

internalField   nonuniform List<vector> 
27
(
(30.9491 3.92271 0.214986)
(30.3192 3.50048 1.45598)
(25.6165 2.81012 1.34947)
(31.7883 3.58299 -0.134986)
(30.6321 3.33741 1.04912)
(27.1887 1.79891 1.19388)
(27.4433 3.21777 -0.00507309)
(27.6286 3.39104 0.17446)
(27.2863 2.38852 0.132889)
(23.2524 3.57912 0.87671)
(25.5798 2.60085 1.10394)
(24.6495 2.80063 0.467523)
(28.1119 1.84456 -0.335662)
(28.5311 1.26688 0.346956)
(29.1838 1.43321 1.04092)
(30.9024 1.79666 0.11677)
(30.1932 2.48916 0.464614)
(29.3777 1.87169 0.36553)
(21.0711 0.959649 -0.171024)
(18.4428 0.533527 -0.790671)
(18.1924 1.19686 -0.550167)
(21.5482 -1.65821 -0.127887)
(22.9337 -1.67631 -0.490886)
(25.4711 -0.63584 0.00470976)
(26.9732 -1.62629 0.26567)
(31.5131 -0.800028 0.973251)
(32.3871 -0.0051954 0.873175)
)
;

boundaryField
{
    aggregate
    {
        type            noSlip;
    }
    XY-Zmin
    {
        type            noSlip;
    }
    YZ-Xmin
    {
        type            freestreamVelocity;
        freestreamValue uniform (25.75 3.62 0);
        value           nonuniform List<vector> 9((25.7753 3.62147 0.00104554) (25.7722 3.61942 0.00707466) (25.7494 3.61607 0.00655657) (25.7793 3.61982 -0.000655645) (25.7737 3.61863 0.00509483) (25.757 3.61118 0.0057817) (25.7582 3.61804 -2.46578e-05) (25.7591 3.61889 0.000848361) (25.7575 3.61403 0.000644621));
    }
    XZ-Ymin
    {
        type            noSlip;
    }
    XY-Zmax
    {
        type            noSlip;
    }
    XZ-Ymax
    {
        type            noSlip;
    }
    YZ-Xmax
    {
        type            freestreamVelocity;
        freestreamValue uniform (25.75 3.62 0);
        value           nonuniform List<vector> 9((21.0732 0.960813 -0.170949) (18.4599 0.54076 -0.788818) (18.2168 1.20467 -0.548393) (21.5737 -1.62625 -0.127113) (22.953 -1.64001 -0.487521) (25.4725 -0.615223 0.00468694) (26.9658 -1.59452 0.264061) (31.4926 -0.784309 0.96979) (32.376 0.000875198 0.871713));
    }
}


// ************************************************************************* //
