/*--------------------------------*- C++ -*----------------------------------*\
| =========                 |                                                 |
| \\      /  F ield         | OpenFOAM: The Open Source CFD Toolbox           |
|  \\    /   O peration     | Version:  2312                                  |
|   \\  /    A nd           | Website:  www.openfoam.com                      |
|    \\/     M anipulation  |                                                 |
\*---------------------------------------------------------------------------*/
FoamFile
{
    version     2.0;
    format      ascii;
    arch        "LSB;label=32;scalar=64";
    class       volScalarField;
    location    "250";
    object      div(phi);
}
// * * * * * * * * * * * * * * * * * * * * * * * * * * * * * * * * * * * * * //

dimensions      [0 0 -1 0 0 0 0];

internalField   nonuniform List<scalar> 
10720
(
4.33301e-06
-2.21156e-06
2.53992e-06
-1.12286e-06
1.70671e-06
1.12414e-07
1.32558e-06
7.61847e-07
4.99774e-07
-6.82318e-08
-3.58752e-07
-6.57395e-07
-5.9517e-07
-4.56417e-07
-1.54605e-07
-5.87412e-08
8.01173e-08
6.41904e-08
3.40446e-07
-5.1588e-09
4.75275e-07
7.52679e-07
6.65129e-06
1.91098e-06
-2.94353e-05
1.41795e-05
4.97938e-05
-2.41963e-05
-1.8162e-05
-9.1215e-06
1.43356e-05
1.6612e-05
4.40902e-07
-1.68871e-05
2.7116e-05
-2.70477e-05
4.11248e-05
2.40251e-05
0.00050816
-1.52732e-06
3.38548e-06
8.45902e-07
6.02632e-07
-2.04314e-08
-6.8715e-07
4.67974e-07
9.53175e-07
-2.7421e-08
-2.28183e-08
-2.03969e-07
2.52712e-07
3.02051e-07
5.50183e-07
3.86953e-07
4.18948e-07
2.18478e-07
3.43369e-07
1.55006e-07
3.65981e-07
-2.04542e-08
1.08198e-07
-6.3275e-07
-8.76278e-07
-8.60933e-07
-6.30808e-07
-6.68554e-07
-1.07483e-06
1.10573e-06
-4.66673e-07
-5.53492e-07
-2.29193e-06
2.86473e-07
6.64907e-07
-1.91402e-06
-7.84567e-07
-2.07622e-06
4.64802e-06
-7.95599e-06
3.29287e-06
2.17351e-08
1.68884e-06
-2.80815e-07
1.02211e-06
4.65884e-07
8.21806e-07
7.82618e-07
3.03309e-07
-1.0358e-07
-3.92723e-07
-6.54645e-07
-5.38423e-07
-4.28488e-07
-1.69117e-07
-1.7272e-07
-6.73118e-08
-1.17461e-07
5.88167e-08
-6.96049e-08
8.78681e-08
1.79931e-07
2.03919e-06
2.083e-06
-3.61389e-06
2.4963e-06
1.4197e-05
-5.16569e-06
-4.66991e-06
-3.1485e-06
1.05755e-05
9.26236e-06
4.5578e-06
-6.84649e-06
2.09154e-05
-1.08269e-05
4.45982e-05
2.27517e-05
0.000305485
7.34186e-07
3.42699e-06
-7.23441e-07
4.90256e-07
-1.44053e-06
2.77206e-08
7.81868e-07
8.02299e-07
1.40661e-07
-9.22069e-08
-1.16306e-07
2.13789e-07
3.26374e-07
5.03479e-07
3.81471e-07
3.99858e-07
2.52591e-07
3.27388e-07
2.03002e-07
2.92182e-07
4.34065e-08
4.94762e-08
-4.79006e-07
-6.55088e-07
-7.92538e-07
-6.26674e-07
-7.51611e-07
-9.42637e-07
5.49789e-07
-6.77151e-07
-6.07392e-07
-2.08134e-06
-6.23664e-07
1.70002e-07
-1.3331e-06
-1.85549e-06
-2.61503e-06
3.84457e-06
-8.59111e-06
-1.80789e-06
2.53583e-06
-1.21574e-06
1.30199e-06
-3.56078e-07
6.74618e-07
6.44039e-07
4.68069e-07
2.17609e-07
-9.08711e-08
-4.95287e-07
-5.96854e-07
-6.31038e-07
-3.82672e-07
-2.23518e-07
-4.63963e-08
-7.93825e-09
8.03593e-08
1.78511e-07
1.05843e-07
1.49761e-07
3.38377e-07
2.13824e-06
7.9793e-07
-1.11964e-05
6.1605e-06
2.91012e-05
-1.33037e-05
-1.26844e-05
-6.36579e-06
7.95986e-06
9.46206e-06
-1.47798e-06
-1.07049e-05
1.34973e-05
-1.49185e-05
1.03526e-05
6.8606e-06
0.000149379
3.79506e-06
-1.56032e-06
2.55441e-07
-2.11602e-06
-9.84005e-07
2.02923e-07
1.20897e-06
7.74813e-07
3.64224e-07
-1.22039e-07
5.47196e-08
4.45059e-08
3.24524e-07
2.9952e-07
3.78059e-07
2.64916e-07
2.57812e-07
2.11673e-07
2.06491e-07
2.16052e-07
7.35928e-08
7.89039e-12
-4.17052e-07
-6.71367e-07
-7.65545e-07
-5.22322e-07
-8.15817e-07
-9.61103e-07
1.10452e-06
-1.3025e-07
-4.28791e-07
-2.40996e-06
7.17306e-07
9.71547e-07
-1.98643e-06
-1.91467e-07
-1.57285e-06
3.17408e-06
-3.87546e-06
2.33525e-06
-9.59865e-07
5.90355e-07
-6.02547e-07
3.32136e-07
2.20096e-07
4.17447e-07
4.92276e-07
1.62527e-07
-1.47002e-07
-5.1867e-07
-5.8524e-07
-5.92076e-07
-3.3557e-07
-2.75053e-07
-1.2173e-07
-2.06751e-07
-6.19529e-08
-9.25805e-08
1.18751e-09
-1.31872e-07
1.73356e-07
1.33295e-06
1.31073e-06
-2.42179e-06
1.75516e-06
9.04079e-06
-2.50535e-06
-2.53994e-06
-2.07854e-06
8.63979e-06
6.63236e-06
4.24134e-06
-4.63107e-06
1.62909e-05
-6.97764e-06
3.34737e-05
1.40225e-05
0.000159953
-1.11177e-06
-8.63801e-07
-2.22054e-06
-2.3161e-06
-6.70568e-07
9.2142e-07
1.22706e-06
8.76826e-07
2.54652e-07
-2.64323e-08
1.65527e-08
1.04462e-07
3.15839e-07
2.96907e-07
3.74391e-07
2.44103e-07
2.96173e-07
1.91514e-07
2.59527e-07
1.55474e-07
1.37467e-07
-3.81353e-08
-2.39677e-07
-5.03455e-07
-5.66635e-07
-5.96289e-07
-7.07161e-07
-9.24487e-07
3.47139e-07
-5.45802e-07
-5.87079e-07
-2.12063e-06
-7.11362e-07
2.09631e-07
-1.40977e-06
-2.12459e-06
-2.97137e-06
2.91371e-06
-7.95639e-06
4.52519e-07
-1.2734e-07
-2.76434e-07
-6.47889e-08
-1.67435e-07
2.70783e-07
4.93498e-07
2.81747e-07
1.96422e-07
-2.3853e-07
-4.20093e-07
-6.30499e-07
-4.89124e-07
-4.09553e-07
-1.90309e-07
-1.48694e-07
-3.73879e-08
-5.52241e-10
1.43195e-07
9.9326e-08
5.80503e-08
1.48238e-07
1.58629e-06
6.71857e-07
-7.98647e-06
7.39572e-06
2.67534e-05
-9.43727e-06
-1.4702e-05
-6.81445e-06
9.68909e-06
8.38234e-06
-1.48659e-06
-1.30287e-05
1.34877e-05
-1.61971e-05
7.87661e-06
3.91414e-06
7.7527e-05
-1.65821e-06
-1.80395e-06
-3.09565e-06
-1.61139e-06
3.23242e-08
9.4841e-07
1.27813e-06
8.67489e-07
2.32508e-07
1.23478e-07
-2.29554e-08
1.9269e-07
1.63189e-07
3.12431e-07
2.18495e-07
2.72332e-07
1.66184e-07
2.16235e-07
1.40508e-07
1.94357e-07
4.90485e-08
2.41127e-08
-3.00012e-07
-4.15211e-07
-6.64851e-07
-5.06259e-07
-8.79776e-07
-9.71674e-07
9.12027e-07
3.16806e-07
-3.13952e-07
-2.43494e-06
8.73511e-07
1.46814e-06
-1.93229e-06
2.01884e-07
-1.48635e-06
2.33591e-06
-1.12777e-06
-9.64099e-07
-2.26859e-08
7.60272e-08
-3.54152e-07
5.1326e-08
1.98737e-07
2.75388e-07
3.95131e-07
9.9735e-08
-2.44508e-07
-4.38078e-07
-5.71903e-07
-4.35055e-07
-3.7359e-07
-1.89198e-07
-2.31731e-07
-1.28249e-07
-1.77871e-07
-1.23049e-08
-1.20957e-07
-1.14615e-07
-1.06643e-08
1.02703e-06
7.37186e-07
-1.49945e-06
1.26012e-06
6.4675e-06
-1.35271e-06
-1.48109e-06
-1.76856e-06
8.92156e-06
6.14831e-06
4.61822e-06
-4.90034e-06
1.73954e-05
-7.7076e-06
3.39695e-05
9.74912e-06
0.000103656
-1.34328e-06
-2.64532e-06
-2.56807e-06
-1.19747e-06
2.08332e-07
1.30609e-06
1.23058e-06
6.96246e-07
2.58576e-07
4.34934e-08
6.05176e-08
1.75681e-07
2.21428e-07
2.89107e-07
2.31308e-07
2.49936e-07
1.78033e-07
2.07049e-07
1.60582e-07
1.62673e-07
9.19862e-08
4.2466e-09
-1.33011e-07
-3.17209e-07
-3.96299e-07
-5.10903e-07
-6.30767e-07
-8.99847e-07
1.86159e-07
-4.52461e-07
-5.44221e-07
-1.92678e-06
-7.44314e-07
1.57252e-07
-1.22378e-06
-2.18182e-06
-2.98666e-06
1.67905e-06
-7.05314e-06
-1.63416e-06
5.67152e-07
-1.86172e-07
-2.41924e-08
-8.97314e-08
1.42973e-07
3.58401e-07
2.72491e-07
1.82637e-08
-1.57395e-07
-4.5847e-07
-4.2684e-07
-4.60179e-07
-2.82102e-07
-2.49252e-07
-1.2835e-07
-1.32385e-07
-7.92239e-09
6.45717e-08
9.47757e-08
-5.56497e-08
4.31168e-08
1.23613e-06
7.85037e-07
-3.98417e-06
5.78688e-06
2.23315e-05
-6.47192e-06
-1.46508e-05
-7.69711e-06
1.0493e-05
7.31999e-06
-1.69906e-06
-1.54008e-05
1.60613e-05
-2.03587e-05
1.17981e-05
1.77039e-06
4.74453e-05
-8.37225e-07
-3.04279e-06
-1.8207e-06
-9.03629e-07
5.44301e-07
1.01196e-06
1.17693e-06
6.195e-07
2.75407e-07
4.86426e-08
1.52262e-07
1.27247e-07
2.62915e-07
1.81992e-07
2.485e-07
1.44552e-07
1.97939e-07
1.05633e-07
1.78909e-07
7.25047e-08
1.33965e-07
-6.87468e-08
-5.70548e-08
-3.89138e-07
-3.33741e-07
-6.11902e-07
-7.02394e-07
-1.15343e-06
1.02137e-06
5.39106e-07
-1.17615e-07
-2.37154e-06
1.0098e-06
1.67448e-06
-1.57974e-06
3.17401e-07
-1.14434e-06
1.57933e-06
5.82526e-07
1.84127e-06
1.71598e-07
4.14329e-07
-3.6672e-08
-2.61018e-08
1.27371e-07
2.52994e-07
3.18506e-07
3.72889e-08
-1.93459e-07
-3.9554e-07
-3.88045e-07
-3.9349e-07
-2.42864e-07
-2.46911e-07
-1.3929e-07
-2.09166e-07
-6.72492e-08
-1.07058e-07
-3.91705e-08
-2.47477e-07
6.20855e-08
6.77523e-07
6.25261e-07
-1.14569e-06
9.64755e-07
4.08532e-06
-2.50513e-07
-5.33178e-07
-1.04752e-06
7.78145e-06
4.92613e-06
4.54999e-06
-4.27751e-06
1.73784e-05
-9.03166e-06
3.73815e-05
6.41036e-06
7.41781e-05
-2.17282e-06
-1.28842e-06
-1.85958e-06
-6.52575e-07
3.35988e-07
1.23799e-06
9.33447e-07
5.19995e-07
1.60012e-07
8.1044e-08
1.17125e-07
2.10545e-07
2.35589e-07
2.34168e-07
1.97204e-07
1.7787e-07
1.41069e-07
1.51381e-07
1.15551e-07
1.32547e-07
6.32225e-08
3.7988e-08
-7.40783e-08
-1.71526e-07
-2.65676e-07
-3.76907e-07
-5.52205e-07
-7.76227e-07
5.55297e-08
-4.00628e-07
-5.47572e-07
-1.67737e-06
-7.51347e-07
8.00581e-08
-1.06707e-06
-2.12939e-06
-2.86099e-06
7.41048e-07
-6.12488e-06
-6.82606e-07
8.60748e-07
2.7883e-07
-3.21831e-08
-7.13897e-08
1.04204e-07
3.82238e-07
1.37052e-07
9.11271e-08
-2.3088e-07
-2.59735e-07
-3.88232e-07
-2.70703e-07
-2.90571e-07
-1.61859e-07
-1.98789e-07
-9.87817e-08
-9.26124e-08
6.05579e-08
-1.98657e-08
-1.08137e-07
-5.20351e-08
9.74316e-07
9.30395e-07
-2.26368e-06
4.11485e-06
1.51889e-05
-4.66079e-06
-1.24169e-05
-8.87602e-06
1.07295e-05
6.36055e-06
-1.34637e-06
-1.7046e-05
1.61128e-05
-2.44938e-05
1.47857e-05
-6.00596e-07
3.27152e-05
-2.65212e-07
-1.91301e-06
-1.35639e-06
-5.20775e-07
5.74809e-07
7.93841e-07
8.54832e-07
4.59173e-07
1.48439e-07
1.0999e-07
1.26902e-07
2.48763e-07
2.09433e-07
2.40439e-07
1.50323e-07
1.70909e-07
9.45094e-08
1.39353e-07
6.81166e-08
1.28612e-07
2.57452e-08
6.18995e-08
-1.01376e-07
-1.21096e-07
-3.1477e-07
-3.28452e-07
-7.20939e-07
-8.65383e-07
8.04001e-07
6.9408e-07
-3.84251e-08
-2.25831e-06
9.31773e-07
2.02505e-06
-1.32785e-06
3.11133e-07
-9.85213e-07
1.3345e-06
1.64941e-06
8.51672e-07
4.51346e-07
2.38198e-07
-6.0255e-08
-6.03319e-08
1.75102e-07
1.71821e-07
2.75515e-07
2.43527e-09
-1.79394e-07
-2.61937e-07
-3.16365e-07
-2.48752e-07
-2.38177e-07
-1.55139e-07
-1.8425e-07
-1.11664e-07
-1.12937e-07
-3.11558e-08
-1.20731e-07
-1.78853e-07
2.94517e-09
6.08496e-07
3.50358e-07
-8.51799e-07
5.70296e-07
2.56711e-06
3.79001e-07
1.9321e-07
-4.28768e-07
6.47119e-06
3.95551e-06
3.97132e-06
-3.21284e-06
1.4972e-05
-8.68688e-06
3.60927e-05
3.20721e-06
5.55113e-05
-8.79713e-07
-1.37242e-06
-1.13816e-06
-3.38815e-07
3.32486e-07
9.90735e-07
6.75591e-07
3.28939e-07
1.13265e-07
6.05171e-08
1.92456e-07
2.18378e-07
2.74722e-07
1.87211e-07
1.93389e-07
1.02451e-07
1.37161e-07
6.79994e-08
1.21762e-07
5.56441e-08
9.34087e-08
5.54887e-09
1.05255e-08
-1.20901e-07
-1.21528e-07
-2.88614e-07
-3.93733e-07
-6.34101e-07
-2.22787e-08
-4.01717e-07
-5.30814e-07
-1.46886e-06
-7.2735e-07
-8.52786e-09
-9.17836e-07
-2.01856e-06
-2.7093e-06
2.06357e-07
-5.42053e-06
6.00405e-07
5.69214e-07
8.83245e-08
-1.10239e-07
-3.97295e-08
9.73337e-08
2.82571e-07
1.57378e-07
-4.04815e-08
-1.05506e-07
-2.75739e-07
-2.10501e-07
-2.71707e-07
-1.58172e-07
-2.11782e-07
-1.17331e-07
-1.79833e-07
-3.70496e-08
-8.47173e-08
-1.77974e-08
-2.8767e-07
-2.14317e-08
5.37077e-07
7.67858e-07
-1.82483e-06
2.21493e-06
7.92645e-06
-2.47155e-06
-1.08834e-05
-8.7383e-06
1.02484e-05
6.68211e-06
-9.44825e-07
-1.70499e-05
1.53668e-05
-2.54158e-05
1.7968e-05
-3.45561e-06
2.70657e-05
-9.17084e-07
-1.09609e-06
-8.96619e-07
-2.66753e-07
5.19048e-07
5.87835e-07
6.31137e-07
3.02837e-07
9.44502e-08
8.84261e-08
1.85697e-07
2.52463e-07
2.5093e-07
2.08408e-07
1.53676e-07
1.17652e-07
9.40918e-08
7.94705e-08
8.24212e-08
6.50296e-08
7.40048e-08
2.30174e-08
2.23622e-08
-9.39586e-08
-8.82341e-08
-2.61452e-07
-3.92909e-07
-6.92932e-07
7.18194e-07
6.28581e-07
4.22905e-08
-2.28629e-06
8.43856e-07
2.08177e-06
-9.31539e-07
2.0904e-07
-8.21203e-07
1.23832e-06
1.91377e-06
1.54284e-07
1.49892e-07
2.05376e-08
-1.03443e-07
-4.89336e-08
1.44111e-07
1.94546e-07
1.77526e-07
1.30724e-08
-1.48719e-07
-2.11446e-07
-2.32689e-07
-1.97986e-07
-1.7545e-07
-1.41209e-07
-1.43958e-07
-9.6925e-08
-8.2715e-08
-3.35427e-08
-1.31898e-07
-1.57164e-07
7.89188e-09
4.94211e-07
1.44072e-07
-6.93236e-07
2.33986e-07
1.71149e-06
8.49583e-07
4.28939e-07
1.33299e-07
5.2627e-06
3.09259e-06
3.49348e-06
-2.04431e-06
1.2752e-05
-7.74001e-06
3.2618e-05
1.98462e-07
3.85017e-05
-3.69123e-07
-9.05553e-07
-6.96859e-07
-1.78308e-07
2.9024e-07
7.67808e-07
4.64576e-07
2.10424e-07
4.78846e-08
1.12385e-07
1.74385e-07
2.83687e-07
2.22312e-07
2.21227e-07
1.16037e-07
1.29437e-07
5.23551e-08
9.91209e-08
3.83892e-08
9.55356e-08
2.81934e-08
7.01834e-08
-1.40121e-08
-1.08303e-08
-9.15499e-08
-1.37862e-07
-3.03048e-07
-4.16452e-07
-1.12606e-07
-3.47329e-07
-5.51645e-07
-1.23567e-06
-7.45329e-07
-1.31198e-07
-8.09373e-07
-1.84302e-06
-2.53719e-06
-9.03208e-08
-4.94288e-06
2.92384e-07
1.7952e-07
-6.14268e-08
-1.36732e-07
-1.68222e-08
1.08371e-07
2.6803e-07
1.21474e-07
2.39717e-08
-1.65345e-07
-1.7484e-07
-2.33231e-07
-1.59081e-07
-1.8718e-07
-1.2097e-07
-1.72116e-07
-9.67765e-08
-1.40164e-07
-4.24189e-08
-2.02901e-07
-2.27202e-07
-2.44963e-07
4.06394e-07
8.49859e-08
-1.39594e-06
6.39201e-08
4.16346e-06
-2.27771e-06
-7.99433e-06
-7.96e-06
8.72822e-06
5.83609e-06
1.665e-07
-1.68519e-05
1.46319e-05
-2.60586e-05
1.93657e-05
-5.88985e-06
1.79036e-05
-4.69238e-07
-6.68192e-07
-5.16445e-07
-1.12489e-07
4.09596e-07
4.05228e-07
4.49786e-07
1.9523e-07
7.69853e-08
8.92779e-08
2.18512e-07
2.35233e-07
2.64122e-07
1.64847e-07
1.58099e-07
7.4946e-08
9.57649e-08
4.91523e-08
8.07478e-08
5.60695e-08
7.59967e-08
5.45816e-08
5.13516e-08
8.68785e-09
-5.37408e-10
-7.81114e-08
-1.96557e-07
-3.67156e-07
5.2718e-07
5.14431e-07
-5.74865e-08
-1.8382e-06
5.14544e-07
2.24575e-06
-6.61789e-07
-5.20793e-08
-7.44126e-07
1.37088e-06
1.72739e-06
9.27696e-08
-2.33926e-08
-8.49864e-08
-1.07947e-07
-3.93514e-08
1.70517e-07
1.82739e-07
1.86285e-07
-3.45617e-08
-1.21531e-07
-2.21293e-07
-1.70133e-07
-1.92352e-07
-1.12092e-07
-1.52947e-07
-7.9156e-08
-1.23196e-07
-1.96948e-08
-9.42456e-08
-7.92935e-08
-1.95791e-07
8.73863e-08
3.01329e-07
7.12213e-08
-6.31416e-07
1.92394e-07
1.28428e-06
1.05121e-06
5.3848e-07
5.72558e-07
3.99928e-06
2.49426e-06
2.9586e-06
-8.62659e-07
1.046e-05
-6.8192e-06
2.84463e-05
-2.2543e-06
2.34545e-05
-2.73713e-07
-4.66326e-07
-3.82681e-07
-9.45562e-08
2.18871e-07
5.66502e-07
3.21851e-07
1.35306e-07
7.64293e-08
1.00979e-07
2.18626e-07
2.29214e-07
2.32623e-07
1.553e-07
1.34529e-07
6.92389e-08
8.44264e-08
3.9385e-08
8.05373e-08
3.93573e-08
8.15816e-08
3.26884e-08
5.4693e-08
-1.03245e-08
9.19622e-10
-9.15498e-08
-1.64429e-07
-2.87584e-07
-1.26367e-07
-3.41295e-07
-4.92913e-07
-1.04376e-06
-7.38869e-07
-2.82888e-07
-7.53935e-07
-1.6639e-06
-2.30871e-06
-2.15036e-07
-4.51644e-06
-1.09336e-08
-8.79064e-09
-1.14932e-07
-1.31469e-07
1.54952e-08
1.18665e-07
2.46146e-07
1.19692e-07
-2.84454e-08
-1.49345e-07
-1.95332e-07
-1.89925e-07
-1.58355e-07
-1.38405e-07
-1.26446e-07
-1.22158e-07
-1.20833e-07
-1.01597e-07
-1.30792e-07
-1.88212e-07
-3.17055e-07
-1.86587e-07
5.1655e-08
-1.22869e-07
-1.3866e-06
-5.37216e-07
1.61584e-06
-1.31961e-06
-5.76837e-06
-6.17163e-06
6.41185e-06
4.79973e-06
1.7729e-07
-1.61785e-05
1.21262e-05
-2.52412e-05
2.21658e-05
-7.95046e-06
1.04966e-05
-2.31472e-07
-3.61101e-07
-3.09623e-07
-3.87364e-08
3.08225e-07
2.81547e-07
3.24885e-07
1.63681e-07
7.18692e-08
1.42011e-07
1.73888e-07
2.54382e-07
1.73111e-07
1.85226e-07
8.21881e-08
1.10107e-07
3.86587e-08
8.58179e-08
4.17561e-08
8.94095e-08
5.97501e-08
9.48591e-08
6.70986e-08
8.37135e-08
6.16135e-08
5.69842e-08
-4.86983e-08
-9.98794e-08
3.38346e-07
3.5352e-07
1.01973e-09
-1.40973e-06
4.06823e-07
2.28425e-06
-1.35873e-07
-3.10922e-07
-7.40115e-07
1.4661e-06
1.39405e-06
-3.65688e-08
-8.96459e-08
-1.22322e-07
-9.72363e-08
-1.95819e-08
1.72481e-07
1.9592e-07
1.02254e-07
-2.14146e-08
-1.76645e-07
-1.67781e-07
-1.99576e-07
-1.19402e-07
-1.45161e-07
-7.50052e-08
-1.22228e-07
-4.17453e-08
-8.65301e-08
-2.5649e-08
-1.53182e-07
-7.87696e-08
1.04933e-08
2.83945e-07
-7.34327e-08
-3.74531e-07
1.51158e-07
1.14726e-06
1.08114e-06
5.78167e-07
7.64665e-07
3.06207e-06
2.02839e-06
2.49023e-06
1.61956e-07
8.39439e-06
-5.36927e-06
2.46065e-05
-4.09115e-06
1.29532e-05
-1.66527e-07
-2.73808e-07
-2.12371e-07
-5.5488e-08
1.67278e-07
4.13389e-07
2.26321e-07
1.37104e-07
8.1162e-08
1.42331e-07
1.7634e-07
2.02441e-07
1.6497e-07
1.36684e-07
9.10483e-08
8.01063e-08
5.14319e-08
6.95364e-08
4.73649e-08
8.08203e-08
5.14068e-08
8.33562e-08
3.54215e-08
5.50004e-08
-6.94315e-10
-4.58889e-09
-1.21774e-07
-1.56761e-07
-1.77456e-07
-2.64998e-07
-4.60511e-07
-8.40767e-07
-7.42282e-07
-4.03072e-07
-7.23266e-07
-1.45202e-06
-2.07919e-06
-2.83418e-07
-4.12434e-06
-9.27312e-08
-9.57371e-08
-1.2443e-07
-1.13417e-07
3.48434e-08
1.36892e-07
1.80294e-07
1.28158e-07
-6.70955e-08
-1.35213e-07
-2.07945e-07
-1.472e-07
-1.6103e-07
-9.489e-08
-1.26628e-07
-8.21117e-08
-1.17654e-07
-8.28423e-08
-1.45164e-07
-1.88583e-07
-2.78262e-07
-1.79967e-07
-5.28359e-08
-2.6992e-07
-1.0553e-06
-6.90308e-07
6.47397e-07
-6.72777e-07
-3.80899e-06
-4.33287e-06
3.90275e-06
3.06638e-06
-7.60772e-07
-1.333e-05
8.41225e-06
-2.36808e-05
2.31354e-05
-9.67951e-06
5.38952e-06
-1.39047e-07
-1.9721e-07
-1.96562e-07
-3.98395e-09
2.20433e-07
1.85728e-07
2.55486e-07
1.48e-07
1.2754e-07
1.18102e-07
1.93874e-07
1.45822e-07
1.74234e-07
8.68823e-08
1.13758e-07
3.94567e-08
8.47933e-08
3.34631e-08
8.58403e-08
5.23634e-08
9.83331e-08
7.59677e-08
1.07528e-07
9.3567e-08
1.19917e-07
1.01717e-07
6.80474e-08
1.41488e-08
2.30046e-07
2.684e-07
5.89108e-08
-8.42868e-07
4.38602e-07
2.04676e-06
4.98384e-07
-5.79038e-07
-8.15537e-07
1.70904e-06
6.2901e-07
-8.85838e-08
-9.71793e-08
-1.3079e-07
-8.39433e-08
3.39519e-09
1.46918e-07
1.88761e-07
8.2258e-08
-5.62976e-08
-1.35696e-07
-1.80041e-07
-1.37594e-07
-1.34488e-07
-8.32179e-08
-1.0063e-07
-5.47831e-08
-7.93207e-08
-2.58614e-08
-8.40569e-08
-6.92166e-08
-1.01437e-07
9.13011e-08
1.542e-07
-4.88625e-09
-2.52203e-07
2.74448e-07
9.63565e-07
1.04072e-06
5.27445e-07
8.5048e-07
2.21317e-06
1.72422e-06
2.07472e-06
1.17851e-06
6.36115e-06
-3.82767e-06
2.04782e-05
-5.32579e-06
6.25833e-06
-9.68277e-08
-1.67843e-07
-1.20921e-07
-3.8906e-08
1.14195e-07
2.95993e-07
2.00598e-07
1.29438e-07
1.2691e-07
1.20125e-07
1.46905e-07
1.30055e-07
1.16863e-07
8.89287e-08
7.28085e-08
5.67263e-08
5.95312e-08
5.05731e-08
7.27134e-08
5.78084e-08
8.77923e-08
5.78247e-08
7.98331e-08
3.42263e-08
5.00457e-08
-1.35794e-08
-4.61759e-08
-1.40847e-07
-1.3847e-07
-2.44667e-07
-3.62157e-07
-6.94135e-07
-6.78918e-07
-5.18396e-07
-6.60573e-07
-1.29846e-06
-1.80748e-06
-3.03215e-07
-3.74983e-06
-9.54319e-08
-1.26958e-07
-1.17388e-07
-8.67038e-08
3.9166e-08
1.17394e-07
1.68383e-07
8.40518e-08
-2.82845e-08
-1.58557e-07
-1.26789e-07
-1.61756e-07
-8.47484e-08
-1.16903e-07
-5.48726e-08
-1.00185e-07
-4.8139e-08
-1.02545e-07
-8.17408e-08
-1.86074e-07
-1.66595e-07
-1.54661e-07
-3.16231e-08
-2.76824e-07
-6.54568e-07
-5.26394e-07
3.51683e-07
-2.8111e-07
-2.27272e-06
-2.79884e-06
1.84603e-06
1.07576e-06
-9.92942e-07
-1.08448e-05
4.95913e-06
-2.38162e-05
2.35755e-05
-1.04885e-05
2.31312e-06
-8.02657e-08
-1.05782e-07
-1.27378e-07
1.032e-08
1.46318e-07
1.448e-07
2.15846e-07
1.77205e-07
1.18369e-07
1.46461e-07
1.01801e-07
1.343e-07
6.72907e-08
9.97608e-08
3.33729e-08
7.68524e-08
2.38639e-08
7.59502e-08
3.76523e-08
8.77158e-08
6.02491e-08
9.97211e-08
8.17646e-08
1.14279e-07
1.07701e-07
1.27826e-07
8.76639e-08
7.23669e-08
1.54319e-07
2.31787e-07
1.15672e-07
-3.15269e-07
3.70698e-07
1.83095e-06
7.21729e-07
-5.41908e-07
-8.53169e-07
1.88969e-06
-1.98251e-09
-8.95415e-08
-8.85726e-08
-1.20781e-07
-7.13907e-08
-2.49388e-09
1.41081e-07
1.55153e-07
4.97687e-08
-4.26997e-08
-1.15061e-07
-1.20838e-07
-1.15784e-07
-8.34381e-08
-7.81816e-08
-5.01855e-08
-5.87547e-08
-2.64802e-08
-4.47484e-08
-2.68562e-08
-7.45359e-08
-3.36937e-09
6.79902e-08
1.69013e-07
-6.90474e-09
-5.05656e-08
2.78077e-07
8.51446e-07
8.48174e-07
5.46659e-07
7.4513e-07
1.5789e-06
1.48412e-06
1.77598e-06
1.71469e-06
4.39127e-06
-2.2296e-06
1.67336e-05
-5.82272e-06
2.29135e-06
-5.38765e-08
-1.0179e-07
-6.11315e-08
-3.4641e-08
8.10881e-08
2.50379e-07
1.71576e-07
1.50861e-07
1.11843e-07
1.05392e-07
8.41225e-08
7.86708e-08
6.41433e-08
5.1298e-08
4.79626e-08
3.92333e-08
4.56438e-08
5.36149e-08
5.43964e-08
7.50627e-08
6.18607e-08
8.35595e-08
5.02985e-08
6.43538e-08
1.99702e-08
2.13865e-08
-5.98833e-08
-8.64239e-08
-1.48062e-07
-1.76159e-07
-3.08666e-07
-5.40101e-07
-6.20271e-07
-5.34525e-07
-6.18391e-07
-1.12861e-06
-1.5599e-06
-3.07787e-07
-3.34901e-06
-8.49822e-08
-1.37509e-07
-1.01357e-07
-7.60312e-08
4.26843e-08
1.02848e-07
1.07662e-07
1.074e-07
-5.57041e-08
-6.86143e-08
-1.24549e-07
-7.00928e-08
-9.61413e-08
-3.55696e-08
-7.03253e-08
-1.83815e-08
-5.9456e-08
-1.90218e-08
-8.33527e-08
-6.62287e-08
-1.20349e-07
-2.35009e-08
-3.73285e-08
-1.19136e-07
-3.71069e-07
-2.17312e-07
2.27221e-07
2.81249e-08
-1.23187e-06
-1.7061e-06
4.41412e-07
2.65641e-07
-1.45886e-06
-7.22576e-06
1.17776e-06
-1.97767e-05
2.18191e-05
-1.08909e-05
4.7602e-07
-4.0387e-08
-4.56535e-08
-8.53665e-08
1.04195e-08
1.20203e-07
9.88656e-08
2.11623e-07
1.55187e-07
1.42606e-07
7.86173e-08
9.5204e-08
3.83998e-08
7.03569e-08
1.74619e-08
5.56408e-08
1.14886e-08
5.83823e-08
2.21793e-08
7.15381e-08
3.84956e-08
8.07831e-08
5.42016e-08
8.82114e-08
7.32681e-08
1.05444e-07
8.77285e-08
9.40198e-08
5.41916e-08
1.27412e-07
1.6089e-07
1.88982e-07
-1.06831e-07
3.85069e-07
1.28606e-06
8.26831e-07
-4.41645e-07
-7.47516e-07
2.03046e-06
-8.84799e-07
-8.72301e-08
-6.80427e-08
-1.12065e-07
-6.08446e-08
4.46333e-10
1.07445e-07
1.49891e-07
3.20693e-08
-4.72617e-09
-5.83946e-08
-7.62124e-08
-6.44015e-08
-5.41942e-08
-3.3945e-08
-3.05816e-08
-1.13821e-08
-1.39677e-08
4.25656e-09
-1.44934e-08
1.06635e-09
2.57769e-08
1.22312e-07
1.37258e-07
7.91889e-08
3.26994e-08
3.20459e-07
6.6702e-07
7.18415e-07
4.81866e-07
6.09005e-07
1.14592e-06
1.29715e-06
1.55746e-06
1.8743e-06
2.76836e-06
-3.98182e-07
1.31641e-05
-5.84254e-06
-4.44927e-08
-2.38937e-08
-6.05046e-08
-3.18145e-08
-2.51942e-08
5.57307e-08
2.15633e-07
1.57395e-07
1.32739e-07
9.32395e-08
6.27723e-08
4.26214e-08
3.67185e-08
2.3964e-08
2.83192e-08
1.05222e-08
2.94469e-08
3.10471e-08
4.23914e-08
4.77592e-08
5.25931e-08
6.67197e-08
5.32961e-08
6.18919e-08
3.15575e-08
3.15088e-08
-7.67842e-09
-3.78639e-08
-9.00095e-08
-1.18255e-07
-1.50763e-07
-2.47515e-07
-4.40176e-07
-5.40759e-07
-5.12737e-07
-5.30442e-07
-9.9188e-07
-1.30442e-06
-2.82721e-07
-2.96095e-06
-6.3472e-08
-1.30575e-07
-8.49233e-08
-5.84904e-08
3.72521e-08
8.01572e-08
1.03273e-07
9.51661e-08
1.99772e-08
-5.55917e-08
-3.58751e-08
-6.7305e-08
-1.6634e-08
-4.12876e-08
7.24592e-09
-2.22667e-08
2.13065e-08
-1.65013e-08
1.27815e-08
-3.27964e-08
1.41931e-08
1.27341e-08
6.83131e-08
-4.01707e-08
-8.88434e-08
-4.22855e-08
2.72874e-07
1.3847e-07
-5.3029e-07
-1.02992e-06
-3.31018e-08
-1.04026e-07
-1.04084e-06
-4.19818e-06
-9.38233e-07
-1.47155e-05
1.82484e-05
-1.08567e-05
-1.05317e-06
-1.49317e-08
-1.398e-08
-5.96103e-08
1.87505e-08
9.49474e-08
8.16512e-08
1.74329e-07
1.56855e-07
8.7455e-08
7.51405e-08
2.48588e-08
4.25525e-08
2.38645e-09
2.2988e-08
-5.68259e-09
4.1757e-08
1.68047e-09
5.12893e-08
1.9652e-08
5.94101e-08
3.06372e-08
6.1605e-08
3.62839e-08
6.74605e-08
4.75328e-08
7.40474e-08
3.70671e-08
5.67511e-08
5.1376e-08
1.4069e-07
1.22843e-07
1.62099e-08
2.07538e-07
8.12585e-07
7.16879e-07
-3.09759e-07
-6.21801e-07
2.06011e-06
-1.41467e-06
-6.75204e-08
-5.03808e-08
-9.33394e-08
-5.18066e-08
-1.06753e-08
1.01126e-07
1.24875e-07
5.30924e-08
2.57318e-08
-1.36505e-08
-3.2719e-08
-2.54962e-08
-1.92025e-08
-2.33963e-09
4.79544e-09
1.76989e-08
2.40119e-08
3.15413e-08
3.295e-08
4.25264e-08
8.36907e-08
1.37736e-07
1.58406e-07
1.15789e-07
1.15802e-07
3.01119e-07
5.36336e-07
5.68384e-07
4.17003e-07
4.88958e-07
8.53125e-07
1.13181e-06
1.38993e-06
1.70009e-06
1.48271e-06
1.03808e-06
9.99551e-06
-5.38436e-06
-1.30379e-06
-7.63169e-09
-3.64871e-08
-5.52937e-09
-2.27944e-08
4.71351e-08
1.8672e-07
1.36663e-07
9.67567e-08
6.50075e-08
2.60707e-08
2.21881e-08
2.68987e-09
6.50948e-09
-1.71128e-08
1.75103e-08
-2.38297e-08
6.96345e-08
6.84799e-09
3.59779e-08
3.69352e-08
4.42293e-08
4.51705e-08
3.78122e-08
2.34081e-08
7.84438e-09
-1.51238e-08
-4.63661e-08
-8.09376e-08
-1.08136e-07
-1.25995e-07
-2.12926e-07
-3.59528e-07
-4.73439e-07
-4.3932e-07
-4.34571e-07
-8.68979e-07
-1.07216e-06
-2.50974e-07
-2.57324e-06
-4.75048e-08
-1.18648e-07
-6.6472e-08
-5.31558e-08
3.55185e-08
6.58627e-08
8.37277e-08
1.19109e-07
2.25485e-08
9.44282e-09
-2.96724e-08
-5.03525e-09
-1.75329e-08
1.86312e-08
6.45942e-09
4.00851e-08
2.42831e-08
5.21024e-08
2.84509e-08
5.96787e-08
4.95782e-08
1.05451e-07
8.68682e-08
8.20385e-08
3.23555e-08
1.25027e-07
2.49684e-07
2.36323e-07
-1.83607e-07
-5.05998e-07
-1.46219e-07
-4.86772e-08
-4.37764e-07
-2.2202e-06
-1.68196e-06
-8.99896e-06
1.49103e-05
-1.00481e-05
-2.41234e-06
1.22654e-09
8.70209e-09
-4.41225e-08
2.12362e-08
8.18917e-08
5.55293e-08
1.55742e-07
1.09838e-07
7.13388e-08
3.3348e-08
2.48741e-08
-1.39924e-09
-5.71822e-09
-9.99359e-09
-4.09045e-08
1.02571e-07
1.914e-08
1.62293e-08
1.08757e-08
9.72097e-09
3.75708e-08
1.63647e-08
3.14425e-08
1.49797e-08
3.2153e-08
1.31835e-08
2.22728e-08
1.44323e-09
3.11384e-08
6.17873e-08
8.41826e-08
-1.03284e-08
6.91845e-08
4.51174e-07
5.30647e-07
-2.22617e-07
-4.57366e-07
1.73915e-06
-1.74366e-06
-5.6382e-08
-2.89899e-08
-8.11223e-08
-4.36639e-08
-1.20528e-08
8.14574e-08
1.21466e-07
5.41611e-08
5.58713e-08
1.15661e-08
5.68736e-10
-8.57853e-09
1.1306e-08
1.3472e-08
3.55662e-08
3.59376e-08
5.50782e-08
5.27625e-08
6.97005e-08
7.35404e-08
1.18922e-07
1.48433e-07
1.69721e-07
1.40869e-07
1.57923e-07
2.7115e-07
4.22114e-07
4.42387e-07
3.49429e-07
3.8701e-07
6.47413e-07
9.53738e-07
1.17885e-06
1.25004e-06
7.20227e-07
2.08018e-06
7.48692e-06
-4.64841e-06
-1.86208e-06
4.44779e-09
-2.13611e-08
5.31331e-09
-1.88478e-08
3.49755e-08
1.66983e-07
9.96119e-08
6.97601e-08
3.30855e-08
1.48865e-08
-2.74191e-09
-7.29259e-09
-2.5199e-08
-6.03981e-08
1.07405e-07
3.79573e-08
5.35512e-08
-2.12548e-08
1.5747e-09
4.45416e-09
1.12246e-08
3.00248e-08
1.73792e-08
7.75777e-09
-1.19756e-08
-2.7666e-08
-5.32211e-08
-7.82148e-08
-9.68528e-08
-1.11789e-07
-1.82668e-07
-2.99981e-07
-3.9481e-07
-3.45211e-07
-3.43152e-07
-7.51525e-07
-8.61116e-07
-2.59884e-07
-2.21087e-06
-2.7119e-08
-1.00233e-07
-5.11149e-08
-4.10767e-08
2.96193e-08
4.9402e-08
8.31222e-08
1.10271e-07
5.71614e-08
1.50316e-08
5.06719e-09
-3.96197e-09
1.37037e-08
1.99316e-08
3.94779e-08
4.3693e-08
5.97384e-08
6.00162e-08
7.29077e-08
7.77562e-08
1.05496e-07
1.17733e-07
1.31769e-07
1.13609e-07
1.26272e-07
1.69195e-07
2.57227e-07
2.3176e-07
1.67586e-08
-2.08551e-07
-8.63997e-08
8.2931e-08
-8.4873e-08
-1.01719e-06
-1.81303e-06
-3.55546e-06
1.13794e-05
-9.04853e-06
-3.29423e-06
1.09925e-08
1.84333e-08
-3.43673e-08
2.62625e-08
6.827e-08
3.83998e-08
1.20827e-07
7.97539e-08
4.60247e-08
2.20185e-08
5.68102e-09
-1.58675e-08
-5.62335e-08
9.07408e-08
2.61186e-08
1.26349e-07
4.01663e-10
2.78585e-08
-4.31295e-08
-9.41188e-09
-1.08727e-08
2.7721e-09
-2.58403e-09
-1.23303e-09
-9.76633e-09
-9.36509e-09
-1.94067e-08
-1.74495e-08
-1.05007e-08
2.41263e-08
2.14134e-08
-3.40253e-08
-2.44663e-08
2.36278e-07
4.11961e-07
-2.08814e-07
-4.09505e-07
1.34481e-06
-1.81446e-06
-3.54646e-08
-1.43156e-08
-6.22676e-08
-3.66883e-08
-2.04453e-08
7.41489e-08
1.01492e-07
6.04365e-08
6.13501e-08
2.91047e-08
6.65638e-09
9.54273e-09
1.35075e-08
3.20282e-08
3.89578e-08
5.50697e-08
5.96851e-08
7.27511e-08
7.76395e-08
9.74663e-08
1.20425e-07
1.54074e-07
1.58577e-07
1.53321e-07
1.61296e-07
2.37043e-07
3.2125e-07
3.37038e-07
2.75744e-07
2.93516e-07
4.86391e-07
7.4423e-07
9.11819e-07
7.40124e-07
3.88192e-07
2.60145e-06
5.40459e-06
-3.82794e-06
-1.91791e-06
1.04498e-08
-1.26311e-08
1.70043e-08
-1.84916e-08
2.9656e-08
1.38802e-07
6.90111e-08
4.59571e-08
1.56388e-08
1.87564e-09
-1.23967e-08
-3.91742e-08
3.27371e-08
1.17276e-08
1.44555e-07
5.45692e-08
4.39976e-08
-3.62413e-08
-2.69814e-08
-4.10589e-08
-4.39924e-08
-1.21366e-08
-3.01802e-09
-1.30202e-08
-2.44286e-08
-4.07105e-08
-5.52726e-08
-7.54648e-08
-8.31678e-08
-9.92836e-08
-1.53502e-07
-2.45603e-07
-3.10507e-07
-2.4255e-07
-2.63143e-07
-6.46464e-07
-6.83127e-07
-2.83555e-07
-1.87623e-06
-1.37897e-08
-8.29218e-08
-3.58172e-08
-3.78505e-08
2.68459e-08
3.75804e-08
6.66008e-08
1.11273e-07
5.34216e-08
2.95638e-08
7.80262e-09
5.91213e-09
1.59364e-08
2.8571e-08
4.14326e-08
5.23053e-08
6.18372e-08
6.99679e-08
7.8369e-08
9.14768e-08
1.10637e-07
1.25658e-07
1.29222e-07
1.30078e-07
1.44662e-07
1.81493e-07
2.22701e-07
2.08215e-07
8.43684e-08
-5.5862e-08
-1.29999e-08
1.25206e-07
7.51994e-08
-5.81974e-07
-1.33461e-06
-3.57682e-07
8.45504e-06
-7.38484e-06
-3.74189e-06
1.71587e-08
2.61483e-08
-2.78314e-08
2.45346e-08
5.56699e-08
1.80902e-08
8.89036e-08
5.82483e-08
2.78183e-08
1.2062e-08
-8.7044e-09
-1.45552e-08
-1.09603e-09
1.10622e-07
8.93221e-08
4.51635e-08
9.71206e-09
-1.30562e-08
-3.55831e-08
-1.02097e-07
-7.03455e-08
-3.23532e-08
-2.32264e-08
-2.53639e-08
-2.79688e-08
-3.31262e-08
-3.6463e-08
-3.73448e-08
-2.66636e-08
-7.96797e-09
-1.22057e-08
-5.22771e-08
-5.25007e-08
1.50225e-07
3.05248e-07
-2.30386e-07
-3.71078e-07
8.11713e-07
-1.58001e-06
-2.50854e-08
1.28705e-09
-5.12611e-08
-2.97855e-08
-2.21322e-08
5.83087e-08
9.0881e-08
5.3756e-08
6.3912e-08
3.44487e-08
1.26332e-08
1.09247e-08
1.88971e-08
3.0374e-08
4.20774e-08
5.17055e-08
6.10035e-08
6.87439e-08
7.89231e-08
9.26469e-08
1.1322e-07
1.34871e-07
1.41822e-07
1.38728e-07
1.48646e-07
1.89138e-07
2.36783e-07
2.4163e-07
1.97717e-07
2.08337e-07
3.43292e-07
5.37646e-07
6.08678e-07
3.12993e-07
2.88066e-07
2.60157e-06
3.81304e-06
-2.98435e-06
-1.69949e-06
1.54106e-08
-6.75385e-09
1.82503e-08
-1.74571e-08
2.06551e-08
1.05754e-07
5.06478e-08
2.39667e-08
1.01513e-08
-1.12882e-08
-1.95258e-08
-3.43386e-08
3.85962e-08
7.15254e-08
7.52959e-08
3.15546e-08
7.42542e-09
-8.03189e-09
-1.0504e-07
-1.17698e-07
-5.29572e-08
-4.12312e-08
-2.84003e-08
-2.55676e-08
-3.3378e-08
-4.29393e-08
-5.44366e-08
-6.53818e-08
-6.90797e-08
-8.29959e-08
-1.23451e-07
-1.928e-07
-2.21637e-07
-1.53636e-07
-2.12004e-07
-5.4439e-07
-5.38648e-07
-3.31336e-07
-1.53675e-06
9.89624e-10
-6.42932e-08
-2.44752e-08
-2.92106e-08
2.17568e-08
2.25398e-08
5.93927e-08
9.6128e-08
5.90653e-08
2.98533e-08
1.28414e-08
8.43451e-09
1.59613e-08
2.67796e-08
3.73914e-08