/*--------------------------------*- C++ -*----------------------------------*\
| =========                 |                                                 |
| \\      /  F ield         | OpenFOAM: The Open Source CFD Toolbox           |
|  \\    /   O peration     | Version:  2312                                  |
|   \\  /    A nd           | Website:  www.openfoam.com                      |
|    \\/     M anipulation  |                                                 |
\*---------------------------------------------------------------------------*/
FoamFile
{
    version     2.0;
    format      ascii;
    arch        "LSB;label=32;scalar=64";
    class       volVectorField;
    location    "250";
    object      momentError;
}
// * * * * * * * * * * * * * * * * * * * * * * * * * * * * * * * * * * * * * //

dimensions      [0 1 -2 0 0 0 0];

internalField   nonuniform List<vector> 
10720
(
(0.0073079 -0.0483357 -4.17185e-15)
(0.00442282 -0.0484226 -2.46813e-15)
(-0.000653028 -0.0331515 -2.15936e-14)
(-0.00295603 -0.0317458 9.99857e-14)
(-0.00467328 -0.0292314 7.47854e-14)
(-0.00596926 -0.0265517 -1.85254e-13)
(-0.00712089 -0.0234514 -1.39634e-13)
(-0.00740945 -0.0194386 -1.07655e-13)
(-0.00710037 -0.0156962 2.15605e-14)
(-0.00643221 -0.0121072 5.47753e-15)
(-0.00552326 -0.00971909 -1.5595e-14)
(-0.00312213 -0.00555325 6.74007e-14)
(-0.00118027 -0.00296243 -2.19432e-13)
(0.000777534 -0.000647378 -4.0136e-13)
(0.00333369 0.00167524 7.43512e-14)
(0.00638391 0.00407109 -1.06119e-13)
(0.0103501 0.00650439 1.1558e-13)
(0.0156216 0.0089611 8.86859e-13)
(0.0225599 0.0114867 2.34783e-13)
(0.0308453 0.0133828 -4.66853e-13)
(0.0380269 0.0144964 -2.31313e-13)
(0.0424592 0.0124432 9.58718e-14)
(0.028534 0.00772676 3.38393e-13)
(8.75688e-05 0.00304065 -2.47499e-13)
(-0.0129924 -0.00277205 4.59675e-14)
(0.00167149 -0.00449828 -4.01834e-14)
(0.0184798 -0.0022474 -6.949e-14)
(0.0208391 2.16808e-05 1.31268e-14)
(0.0155507 0.000791226 1.01051e-14)
(0.0112074 0.000455167 2.1004e-13)
(0.00775905 -0.000191507 1.55167e-13)
(0.0074201 -0.000647262 -1.77422e-13)
(0.00924457 -0.00106918 -1.33483e-13)
(0.00916697 -0.00124375 -2.39599e-13)
(0.00818373 -0.00117027 -1.59985e-13)
(0.00703675 2.58045e-05 1.54816e-13)
(0.00839644 0.0103225 -1.08664e-14)
(0.0591214 0.0723002 -6.25025e-16)
(1.10715 -0.122352 -6.38364e-14)
(0.00898995 -0.0439587 8.09794e-15)
(0.0105038 -0.0356215 -1.99952e-14)
(0.0109955 -0.0262213 2.29066e-14)
(0.00942693 -0.0175729 1.04257e-13)
(0.00779722 -0.0118543 3.60443e-14)
(0.00597565 -0.00696582 -2.84843e-13)
(0.00244747 -0.00214456 -1.55922e-13)
(3.4685e-05 0.000224636 1.61133e-13)
(0.000651051 -0.000953142 -6.37172e-14)
(0.00255632 -0.00260624 5.91418e-14)
(0.00279586 -0.00200263 -8.07784e-14)
(0.00227588 -0.00137544 -1.38053e-13)
(0.00225771 -0.00124686 3.60541e-14)
(0.00226533 -0.00105772 7.1136e-14)
(0.00198557 -0.000800167 -1.17423e-13)
(0.00169895 -0.000642743 -1.01482e-13)
(0.00153804 -0.000553729 -7.24199e-14)
(0.00142289 -0.000484445 -8.86145e-14)
(0.00131871 -0.000423289 -3.26499e-14)
(0.00123006 -0.000371704 -2.8371e-15)
(0.00115756 -0.000323212 3.10691e-14)
(0.00109032 -0.000279628 6.27139e-14)
(0.00102858 -0.000236765 -2.99386e-14)
(0.000968832 -0.000201355 -2.13003e-14)
(0.000902622 -0.000156393 2.58452e-14)
(0.000824189 -0.000147369 -4.02256e-15)
(0.000765545 -0.000128305 -9.9553e-16)
(0.000737743 -1.6241e-05 -2.05908e-15)
(0.000704881 6.51654e-05 4.74133e-16)
(0.000661784 6.431e-05 1.06771e-16)
(0.00060358 5.23044e-05 4.89258e-16)
(0.000559986 4.90839e-05 -1.32476e-15)
(0.000528454 5.17789e-05 -2.52422e-15)
(0.000464898 5.2628e-05 -3.96563e-15)
(0.000391939 5.11708e-05 -5.26371e-15)
(0.000421377 6.15398e-05 -2.42491e-15)
(0.000283129 2.67113e-05 1.28541e-14)
(0.000236394 -0.000198489 -3.3992e-15)
(0.00107088 -0.00148501 -5.84665e-14)
(-0.00381237 -0.0331199 -3.876e-15)
(-0.00677284 -0.032273 2.19967e-15)
(-0.00836273 -0.0226038 -1.25659e-17)
(-0.0110734 -0.0220022 -7.56499e-15)
(-0.012831 -0.0208938 1.00053e-14)
(-0.0140675 -0.0194221 6.72439e-14)
(-0.0154796 -0.0173261 8.03181e-14)
(-0.0160649 -0.0147614 2.64711e-14)
(-0.0158825 -0.0121531 -8.61914e-14)
(-0.0154737 -0.00985895 -4.19179e-14)
(-0.0144012 -0.00751507 -2.5644e-13)
(-0.0141526 -0.0085244 -4.72332e-13)
(-0.0137717 -0.008703 -2.36445e-14)
(-0.0137297 -0.00839842 -2.07124e-14)
(-0.0125216 -0.00908917 -8.28082e-14)
(-0.0115295 -0.00996747 8.65398e-14)
(-0.0101785 -0.0113792 3.89066e-13)
(-0.00796789 -0.0130507 -6.87582e-13)
(-0.00314737 -0.0150873 -5.72353e-13)
(0.00279204 -0.0162042 -3.5853e-13)
(0.0315431 -0.0196052 2.15455e-13)
(0.0353794 -0.0105512 2.96194e-13)
(0.000228671 -0.024704 -3.85704e-13)
(0.0662339 0.00121582 5.93989e-14)
(0.120537 0.0063315 -2.10452e-15)
(0.133679 0.010749 -1.16112e-14)
(0.0952963 0.0105314 -4.08516e-15)
(0.0339359 0.00503038 1.23266e-14)
(0.013092 0.00215935 -2.75223e-14)
(0.0121998 0.000579038 -1.03165e-14)
(0.00938962 -0.00150248 9.31557e-15)
(0.0109622 -0.00267178 -5.51942e-15)
(0.0125612 -0.00274755 -1.14772e-13)
(0.0132581 -0.00257299 -7.18728e-14)
(0.0130847 -0.00239895 1.60385e-13)
(0.0123107 -0.00202622 2.85304e-14)
(0.0122955 -0.000347742 6.37546e-14)
(-0.0199152 0.0117376 -1.18089e-14)
(-0.888016 0.107109 -3.28081e-14)
(-0.00169697 -0.0311127 -1.63874e-14)
(0.00106796 -0.0260166 1.50146e-13)
(0.00325961 -0.0201151 -4.71341e-14)
(0.00404373 -0.0152515 -1.15813e-13)
(0.00429792 -0.0109821 8.28724e-14)
(0.00407882 -0.00698955 6.68788e-14)
(0.00268688 -0.00348176 2.94323e-14)
(0.00156891 -0.00183987 1.54049e-13)
(0.00183927 -0.00214886 -3.26643e-15)
(0.00278566 -0.00248951 -4.39215e-14)
(0.00309422 -0.00182243 7.30036e-14)
(0.00289017 -0.0014383 -9.49551e-14)
(0.0028245 -0.00125646 1.99464e-14)
(0.00276593 -0.000936497 1.04118e-14)
(0.00251706 -0.000648994 2.4698e-14)
(0.00222919 -0.000516151 2.77077e-14)
(0.00203029 -0.000442658 4.69773e-14)
(0.00188077 -0.000382048 -1.40577e-14)
(0.00174976 -0.000328459 3.03594e-15)
(0.00163661 -0.000282577 -7.02228e-15)
(0.00154201 -0.000233573 1.82798e-14)
(0.00145533 -0.000186406 5.30345e-14)
(0.00137395 -0.000139535 -8.84009e-16)
(0.00129221 -9.0769e-05 -1.76651e-14)
(0.00120527 -3.51503e-05 -1.49816e-14)
(0.0011116 1.39419e-05 2.14388e-14)
(0.00101547 4.6004e-05 6.16682e-15)
(0.000935477 5.92467e-05 -1.61125e-15)
(0.000870858 4.72566e-05 4.65837e-17)
(0.00079692 3.47564e-05 -1.06535e-16)
(0.000739239 3.4103e-05 -1.99937e-16)
(0.000691275 4.78695e-05 -4.16654e-16)
(0.000654063 5.75547e-05 2.15986e-15)
(0.000623629 5.9811e-05 2.35433e-15)
(0.00056561 5.45389e-05 2.73987e-15)
(0.000462416 5.67204e-05 -7.42104e-15)
(0.000474573 6.38937e-05 7.79532e-16)
(0.00056892 3.77879e-05 1.34382e-14)
(0.00138603 0.000323869 1.5823e-14)
(0.00117316 -0.0263226 2.10358e-15)
(-0.000110147 -0.025359 -1.45232e-15)
(-0.00146912 -0.0185871 -2.63897e-15)
(-0.00282213 -0.0188738 1.38472e-15)
(-0.00377932 -0.0183674 5.77944e-14)
(-0.00473657 -0.0171948 -6.43137e-14)
(-0.00575806 -0.015783 -8.825e-14)
(-0.00636489 -0.0139383 1.60725e-13)
(-0.00654024 -0.0118768 6.56498e-14)
(-0.00644277 -0.00997999 8.88704e-14)
(-0.00605093 -0.00834908 2.05041e-14)
(-0.00545184 -0.00674974 -7.80147e-16)
(-0.00486405 -0.0052387 3.55773e-13)
(-0.0040651 -0.00422789 1.20255e-14)
(-0.00411127 -0.00318237 2.16496e-13)
(-0.00484675 -0.00229546 1.20966e-15)
(-0.00585974 -0.00204116 -6.8404e-13)
(-0.00769696 -0.00221804 4.12047e-13)
(-0.0116174 -0.00335969 9.20171e-13)
(-0.0177067 -0.00386797 1.65847e-13)
(-0.0335331 0.000474413 -2.6723e-14)
(-0.033334 -0.0149236 -6.78368e-14)
(0.0634018 0.0369714 1.64803e-13)
(-0.0131678 -0.00926468 1.191e-13)
(0.0081857 -0.00462606 -9.77947e-14)
(0.00509119 0.000618962 -2.1854e-14)
(-0.0294493 -0.000208788 -5.62979e-14)
(-0.0475336 -0.000907818 3.08751e-14)
(0.00532319 0.000681111 -2.82486e-14)
(0.0248984 0.000503974 -1.56428e-13)
(0.0305111 -0.00222001 -7.83489e-15)
(0.0309988 -0.00357057 2.37536e-13)
(0.0218001 -0.00375854 3.6055e-14)
(0.0164202 -0.00349056 1.12145e-13)
(0.014452 -0.00306159 1.33649e-13)
(0.0136841 -0.00264548 2.2036e-14)
(0.0131103 -0.0018488 -8.51406e-14)
(-0.000754051 -0.00121341 8.56168e-15)
(-0.094989 0.00611498 1.58989e-14)
(0.00237798 -0.0250325 2.43023e-14)
(0.0033292 -0.0212725 -3.70273e-14)
(0.00404773 -0.016586 -4.64816e-14)
(0.00435697 -0.0131225 -1.31114e-14)
(0.00420046 -0.00988987 1.12944e-14)
(0.00369564 -0.00678745 -1.20794e-13)
(0.00279086 -0.00393647 2.34399e-14)
(0.00229148 -0.00289425 -1.49178e-13)
(0.00267091 -0.00298342 -1.24944e-13)
(0.00319887 -0.00288327 -1.15763e-13)
(0.00336019 -0.00244202 1.1828e-13)
(0.00320026 -0.00209339 1.03747e-13)
(0.00304333 -0.00178859 -6.465e-14)
(0.00289438 -0.00143584 -1.48465e-13)
(0.0026473 -0.00114354 4.05302e-14)
(0.00235859 -0.000961559 6.9827e-14)
(0.00212656 -0.000831419 -1.89704e-14)
(0.00194909 -0.000719481 -9.26628e-14)
(0.0017994 -0.000622806 -2.68447e-14)
(0.00167131 -0.000537684 2.52936e-15)
(0.00156477 -0.000455829 -2.07131e-14)
(0.00146981 -0.000379075 -4.14114e-14)
(0.0013801 -0.000306387 9.1333e-15)
(0.00128879 -0.000236566 -6.39672e-16)
(0.00119381 -0.000166582 2.88214e-15)
(0.00109399 -0.000110185 -9.70501e-15)
(0.000995193 -7.61008e-05 -1.78847e-14)
(0.000911438 -4.89818e-05 3.98189e-15)
(0.000838101 -1.6314e-05 7.55395e-16)
(0.000760692 1.51027e-05 -1.67102e-16)
(0.000691478 4.59437e-05 1.19215e-16)
(0.000640705 5.67983e-05 4.55197e-16)
(0.000605993 6.51005e-05 -7.42973e-16)
(0.000565832 7.02765e-05 -1.4104e-15)
(0.000517746 7.87955e-05 6.42582e-16)
(0.000527077 9.0574e-05 -1.16395e-15)
(0.00032598 3.93563e-05 8.77119e-15)
(0.000406182 9.33724e-05 8.131e-15)
(0.000871368 0.000267561 -8.33276e-14)
(-0.00126642 -0.0203524 1.05145e-14)
(-0.00259425 -0.0194269 2.78341e-15)
(-0.00351685 -0.0148081 1.08025e-15)
(-0.00494394 -0.01504 -6.52263e-15)
(-0.00595982 -0.0144165 1.04216e-15)
(-0.00692729 -0.0133501 -1.45336e-14)
(-0.00792547 -0.0121176 1.04257e-13)
(-0.0085112 -0.0105271 3.08939e-14)
(-0.00871647 -0.00882683 -2.52835e-13)
(-0.00865928 -0.00726825 8.51395e-14)
(-0.00830158 -0.00588204 2.72211e-13)
(-0.00774267 -0.00470901 3.41719e-13)
(-0.00699016 -0.00393595 7.88222e-14)
(-0.00615002 -0.00353819 -3.8538e-13)
(-0.00561757 -0.00311915 -9.79189e-14)
(-0.00407386 -0.00373105 -9.90583e-14)
(-0.00292011 -0.00413105 -1.79089e-13)
(-0.00176354 -0.00484898 -3.62245e-13)
(-0.000743195 -0.00617338 -6.29361e-13)
(-0.000411837 -0.00756763 1.59108e-13)
(-0.00767575 -0.0166451 -1.26924e-13)
(-0.00941111 -0.0110372 -1.78453e-13)
(-0.0690047 -0.0382423 2.43117e-15)
(-0.0308909 -0.0123374 -2.52386e-13)
(-0.0390869 -0.00697738 -4.64267e-14)
(-0.030541 -0.00282147 4.40064e-14)
(-0.0244646 0.00857808 5.28335e-14)
(0.0799019 -0.00311183 -2.41047e-14)
(-0.0479049 0.00115721 3.35434e-14)
(-0.0599141 0.00475414 6.49339e-14)
(0.0285101 -0.00632992 -5.64861e-14)
(0.0338757 -0.00329049 1.20514e-14)
(0.0360484 -0.00402876 1.77715e-13)
(0.026887 -0.0034435 8.1034e-14)
(0.0182219 -0.00317268 -3.27695e-14)
(0.0149619 -0.00303345 -1.08805e-13)
(0.0155673 -0.00292065 -2.72474e-14)
(0.0116089 -0.00414772 -1.98352e-14)
(-0.0120364 0.00489381 5.51883e-14)
(1.12233e-05 -0.0194244 -1.73663e-15)
(0.00123399 -0.0169399 -3.89715e-14)
(0.00228629 -0.0136336 -3.45606e-14)
(0.00294538 -0.0112548 -2.8146e-14)
(0.00323525 -0.00879894 1.13918e-13)
(0.00312791 -0.00632111 2.05757e-13)
(0.00265063 -0.00409444 1.17376e-14)
(0.00251203 -0.00342562 1.4145e-13)
(0.00308441 -0.0035071 5.5797e-16)
(0.00339899 -0.00315828 -3.10941e-14)
(0.00351173 -0.00264164 -9.01322e-14)
(0.00342697 -0.00217489 -2.98068e-14)
(0.00326672 -0.00177024 -1.54023e-14)
(0.00308775 -0.00139127 7.44087e-14)
(0.00285264 -0.00106728 -3.90156e-14)
(0.00257663 -0.000831511 -1.3232e-13)
(0.00233202 -0.000665434 -1.68064e-14)
(0.00213241 -0.000538264 8.63777e-14)
(0.00196211 -0.00043796 -2.61195e-15)
(0.00181333 -0.000356742 -2.43593e-14)
(0.00168719 -0.000285846 -6.56655e-14)
(0.00157472 -0.000222398 2.6811e-14)
(0.00146792 -0.000164876 3.5233e-14)
(0.00136006 -0.000110924 -6.07291e-15)
(0.00125146 -5.64808e-05 -2.76518e-15)
(0.00114312 -1.09356e-05 6.03153e-15)
(0.00103724 1.90347e-05 8.67417e-15)
(0.000944213 4.27207e-05 -2.03468e-15)
(0.000859832 6.18677e-05 -7.49143e-16)
(0.000772966 7.0711e-05 1.83716e-16)
(0.000691013 6.6003e-05 -9.69602e-17)
(0.000632938 5.62779e-05 -1.56727e-16)
(0.000582459 8.7807e-06 7.02687e-17)
(0.000486806 -0.000173871 -2.76001e-16)
(0.000574325 0.00033509 -2.06646e-15)
(5.48884e-05 -0.00103431 1.48024e-14)
(0.000890225 0.00196691 -2.21558e-14)
(0.000407869 -0.000341406 -5.56718e-14)
(0.000666811 0.000248532 -3.04097e-14)
(-4.73586e-06 -0.0166895 -8.9228e-15)
(-0.000859018 -0.0158799 4.79325e-15)
(-0.00159702 -0.0125698 4.20826e-15)
(-0.00261347 -0.012988 -1.74289e-14)
(-0.00333462 -0.0125978 -1.48875e-14)
(-0.00405615 -0.0118186 3.52789e-14)
(-0.00482809 -0.0110079 -1.29216e-14)
(-0.00527386 -0.00987843 1.36847e-14)
(-0.00547523 -0.00864708 -9.41098e-14)
(-0.00547521 -0.0075124 -2.87414e-13)
(-0.00523455 -0.00647117 -1.03093e-14)
(-0.00483167 -0.00557418 -1.25323e-13)
(-0.00429804 -0.00485198 -8.12114e-14)
(-0.00375683 -0.0042608 -1.43828e-14)
(-0.00316489 -0.00385673 -3.30223e-13)
(-0.00279758 -0.00327949 2.99877e-13)
(-0.00265405 -0.00277249 1.72006e-13)
(-0.00254177 -0.00263594 -3.86816e-13)
(-0.00242134 -0.00279709 1.22266e-13)
(-0.00246898 -0.00330602 -2.01043e-13)
(-0.00293875 -0.00425077 -1.3956e-13)
(-0.0039207 -0.00468667 2.51289e-13)
(-0.00675389 -0.00454245 6.10946e-15)
(-0.0114433 -0.00492776 2.21583e-13)
(-0.0136989 -0.00474408 1.01145e-13)
(-0.0201035 0.000603933 -2.04854e-14)
(0.00356186 0.00281513 6.24837e-15)
(-0.0631178 0.0127719 2.4733e-14)
(0.00168793 -0.00498835 -3.01466e-14)
(-0.00915738 -0.00227204 -5.40861e-14)
(-0.00944597 0.00245058 2.18803e-14)
(-0.0142323 -0.0025546 -5.28361e-14)
(0.00673822 -0.000800021 -4.00512e-14)
(0.0141031 -0.00161033 -1.49235e-13)
(0.0170643 -0.0023855 -2.40073e-13)
(0.0159591 -0.00294404 4.14712e-14)
(0.01725 -0.00339098 -1.06374e-14)
(0.0163457 -0.00517869 -9.40784e-15)
(0.00361127 0.00470538 -1.94634e-14)
(0.000810361 -0.0159476 2.00383e-14)
(0.0015131 -0.01407 3.82048e-14)
(0.0021256 -0.0114716 -5.04967e-14)
(0.00258099 -0.0096716 -1.94773e-14)
(0.00282337 -0.00774249 7.47579e-14)
(0.00277926 -0.00577915 -1.50777e-13)
(0.00261748 -0.00433927 -9.96617e-14)
(0.00273473 -0.00384019 2.05271e-13)
(0.00321458 -0.00368988 1.92422e-13)
(0.00346532 -0.00328215 -8.43597e-15)
(0.0035445 -0.00279965 -5.58831e-14)
(0.00347913 -0.00234322 -3.47632e-14)
(0.00331701 -0.00193571 1.17145e-13)
(0.00312174 -0.00156725 -5.8132e-14)
(0.00289344 -0.00124821 -1.30498e-14)
(0.00263009 -0.000999774 9.83436e-14)
(0.00238464 -0.000819478 -4.44136e-14)
(0.00217348 -0.000680974 4.07526e-14)
(0.00199223 -0.000570009 2.43734e-14)
(0.00183256 -0.000478964 4.24956e-15)
(0.00169589 -0.000400615 6.83706e-14)
(0.00157475 -0.000329878 -2.56373e-14)
(0.00146052 -0.000264754 -4.77518e-14)
(0.00134581 -0.000202779 -7.62504e-15)
(0.00123277 -0.000142752 1.9095e-14)
(0.00112308 -9.16183e-05 6.5144e-16)
(0.00101686 -5.52625e-05 9.26641e-15)
(0.00092314 -2.84372e-05 -1.73818e-15)
(0.00083849 -6.21973e-06 1.13316e-16)
(0.000751356 8.91028e-06 -2.78594e-16)
(0.000665964 1.90216e-05 -5.11652e-16)
(0.000605302 4.34615e-05 3.62484e-17)
(0.000569591 0.000121485 4.79484e-17)
(0.000555008 0.000361848 5.19917e-16)
(0.000412385 -0.000407913 -1.38272e-15)
(0.000628775 0.00130641 5.38949e-15)
(0.000401294 -0.00249194 1.75403e-15)
(0.000352805 0.00053475 -1.14754e-14)
(0.000717388 0.000158279 4.31971e-14)
(-0.000415806 -0.0136412 2.18124e-15)
(-0.00120133 -0.0129281 -4.30809e-16)
(-0.00182338 -0.0105217 2.4296e-15)
(-0.00275587 -0.0108796 -3.35771e-15)
(-0.00341735 -0.010496 1.13134e-14)
(-0.00407439 -0.00980457 -1.48045e-15)
(-0.00478837 -0.00910073 -4.20651e-14)
(-0.00521273 -0.00813097 7.85924e-14)
(-0.00544012 -0.00708833 1.69837e-13)
(-0.00551047 -0.00610717 -1.05852e-13)
(-0.00536175 -0.00518335 -1.08141e-13)
(-0.00506864 -0.00435465 6.48924e-14)
(-0.00466762 -0.00366002 -1.49865e-13)
(-0.00418563 -0.00312808 -2.85253e-14)
(-0.00367764 -0.00275094 -4.61462e-14)
(-0.00324675 -0.00243845 1.98302e-14)
(-0.00253623 -0.00283964 4.02919e-14)
(-0.00205229 -0.00338238 4.47128e-13)
(-0.00169359 -0.00420842 3.53177e-13)
(-0.00163672 -0.0052781 -1.57667e-13)
(-0.00213975 -0.00640516 2.26074e-13)
(-0.00316487 -0.00690516 1.87557e-14)
(-0.00417963 -0.00645717 -5.71164e-14)
(-0.00537063 -0.00591457 -1.18328e-13)
(-0.00776487 -0.00475687 9.30373e-15)
(-0.0101742 -0.000961031 3.2323e-14)
(-0.0148987 0.00434869 4.00326e-14)
(-0.00445283 0.00494613 -3.78727e-14)
(0.00767279 0.00163577 9.84629e-15)
(0.0260561 -0.00490765 7.60171e-14)
(-0.0302454 0.000186098 -2.97413e-14)
(-0.0133144 -0.00157031 -1.67274e-13)
(-0.0168131 0.000465989 -8.94589e-14)
(-0.0094918 0.000581508 -6.1345e-14)
(-0.00258841 -0.00023541 6.35977e-14)
(0.00594455 -0.00209162 5.74882e-14)
(0.0143461 -0.00282755 5.83103e-14)
(0.0176674 -0.00529608 6.42951e-14)
(0.00816803 0.00485465 -1.07357e-15)
(0.000340645 -0.0130733 -9.13766e-15)
(0.00101565 -0.0116937 -1.05283e-14)
(0.00162646 -0.00969295 2.56583e-15)
(0.00209114 -0.00831362 3.37371e-14)
(0.00236841 -0.00679873 2.23135e-14)
(0.00243141 -0.00522616 -1.94142e-13)
(0.00248934 -0.00429646 -1.16752e-13)
(0.00277654 -0.00396831 -1.84563e-13)
(0.00318561 -0.0037257 2.241e-14)
(0.00340428 -0.00330172 2.06504e-14)
(0.00347926 -0.00283408 -5.19074e-14)
(0.00343864 -0.0023816 4.96203e-15)
(0.00330039 -0.00196398 -2.45846e-14)
(0.0031177 -0.00159081 -4.58538e-14)
(0.00290644 -0.00126795 -1.42159e-13)
(0.00266427 -0.00100488 -1.1971e-14)
(0.00242891 -0.000804506 8.6332e-14)
(0.00221759 -0.000649484 -1.33728e-14)
(0.00203222 -0.00052662 1.67001e-14)
(0.00186699 -0.00042825 -3.05328e-14)
(0.00172276 -0.000346977 -4.68755e-14)
(0.00159373 -0.000276376 -4.23406e-15)
(0.00147191 -0.000213253 1.7685e-14)
(0.00135017 -0.000155079 1.90911e-14)
(0.00123154 -9.98997e-05 -5.83482e-16)
(0.00111913 -5.21823e-05 -1.00682e-14)
(0.00101148 -1.709e-05 -1.69698e-14)
(0.000916018 8.83342e-06 3.28584e-15)
(0.000829916 3.12939e-05 -1.94093e-16)
(0.000742211 4.70995e-05 3.06592e-16)
(0.000657238 5.67974e-05 4.87215e-16)
(0.000595501 5.83758e-05 -3.65917e-17)
(0.000565504 4.46299e-05 1.96735e-16)
(0.000547694 -2.11327e-05 -1.02545e-15)
(0.000382306 0.000265751 3.17132e-16)
(0.000556134 -9.74265e-06 -1.45166e-14)
(2.45587e-05 0.000849286 2.26773e-14)
(0.000541129 -0.000262882 5.80747e-14)
(0.00105881 -0.000478925 -2.15614e-14)
(-0.000167946 -0.011394 9.7991e-16)
(-0.000778352 -0.0108056 -2.75178e-16)
(-0.00128072 -0.00903302 6.54429e-16)
(-0.00202237 -0.00940226 3.38214e-15)
(-0.00254889 -0.00910295 -9.04582e-15)
(-0.00307996 -0.00856101 -1.91114e-14)
(-0.00365281 -0.00805736 4.55631e-14)
(-0.00398888 -0.00733034 -8.91078e-15)
(-0.00417646 -0.00654773 5.0524e-14)
(-0.00424512 -0.00581695 1.03073e-13)
(-0.00413354 -0.0051079 2.22871e-14)
(-0.00390447 -0.00446568 3.44961e-14)
(-0.0035826 -0.00392841 2.16628e-13)
(-0.00318344 -0.00350518 3.67341e-13)
(-0.00277573 -0.00319838 3.32967e-13)
(-0.00234979 -0.00305324 -5.406e-15)
(-0.00200911 -0.00291477 4.05508e-13)
(-0.00185418 -0.0029369 2.67885e-14)
(-0.00185068 -0.00320709 -1.19201e-13)
(-0.00208051 -0.00371713 1.57481e-13)
(-0.00275991 -0.00439122 -2.60944e-13)
(-0.00387457 -0.0047901 1.10165e-13)
(-0.00501549 -0.00463356 1.10568e-13)
(-0.00609298 -0.00423712 4.48892e-14)
(-0.00708597 -0.00324662 1.20526e-13)
(-0.00695715 -0.000618826 -4.9514e-14)
(-0.00438974 0.00219596 -4.28028e-14)
(-0.00210934 0.00326761 6.32162e-15)
(0.000628054 0.00210645 2.63907e-14)
(-0.000457436 0.000263072 -7.03293e-14)
(-0.00253777 -0.00114308 -6.87404e-14)
(-0.00597825 -0.00134604 1.40269e-13)
(-0.00893658 -0.000279021 3.15881e-14)
(-0.0087205 0.000291292 -6.03837e-14)
(-0.00715735 -4.17917e-07 -5.02073e-16)
(0.01463 -0.00748098 -1.4359e-13)
(-0.00633587 0.00148604 -5.12201e-14)
(0.0125163 -0.00471435 -1.98646e-14)
(0.0115119 0.00399433 -3.19438e-14)
(0.00041507 -0.0109281 -6.63821e-15)
(0.000932407 -0.00985801 -1.26905e-14)
(0.00141345 -0.00826018 6.038e-15)
(0.00180242 -0.00717604 8.31879e-14)
(0.00204882 -0.00595588 3.54638e-14)
(0.00214889 -0.00466832 6.88402e-16)
(0.00230043 -0.00406435 1.82792e-13)
(0.00270696 -0.00391333 -8.38704e-14)
(0.00306228 -0.00362849 -1.35011e-13)
(0.0032679 -0.00322171 4.91551e-14)
(0.0033507 -0.00279058 9.80726e-14)
(0.00332881 -0.00236892 -2.41964e-14)
(0.00321484 -0.00197208 6.85802e-14)
(0.00305288 -0.00161775 9.3158e-15)
(0.00286103 -0.00131018 3.53185e-14)
(0.00263931 -0.00105231 1.24843e-14)
(0.00241867 -0.00084972 -3.93564e-14)
(0.00221287 -0.000691588 3.24439e-14)
(0.00202748 -0.000566265 -2.44888e-14)
(0.00185987 -0.00046577 4.50653e-15)
(0.00171154 -0.000383252 6.51332e-14)
(0.00157725 -0.000312083 -2.25372e-14)
(0.00145057 -0.000248186 -3.04424e-14)
(0.00132491 -0.000189209 6.58412e-15)
(0.00120419 -0.000134298 -1.63558e-15)
(0.00109168 -8.67579e-05 2.99162e-15)
(0.00098487 -5.04991e-05 8.57793e-15)
(0.000889962 -2.33939e-05 -1.47372e-15)
(0.000804505 -2.17098e-07 -1.41695e-16)
(0.000718116 1.67408e-05 1.95514e-16)
(0.000634352 2.52745e-05 1.45082e-15)
(0.000570265 3.22845e-05 1.80075e-16)
(0.000535634 3.9494e-05 -1.00218e-15)
(0.000495285 4.77881e-05 -1.76814e-16)
(0.000422184 5.14342e-05 -4.28077e-16)
(0.000298679 -0.000144351 4.33697e-15)
(0.000352971 -8.50754e-05 -8.99713e-15)
(0.000390507 9.2165e-05 -1.43117e-14)
(0.000471416 0.000352209 -5.29132e-14)
(-0.000167964 -0.00956574 2.71608e-15)
(-0.00069812 -0.00907096 -3.04869e-15)
(-0.00113725 -0.0077452 -7.39384e-17)
(-0.00178299 -0.00806826 2.6976e-15)
(-0.00224743 -0.00780407 -2.05549e-15)
(-0.00271183 -0.0073412 2.54071e-15)
(-0.00321672 -0.00693228 8.74109e-15)
(-0.00352003 -0.00633002 -1.09264e-13)
(-0.00370541 -0.00568084 -1.47219e-14)
(-0.00380321 -0.00507146 1.70597e-13)
(-0.00374556 -0.00446107 -7.2166e-14)
(-0.00358812 -0.00389365 -1.53156e-13)
(-0.00334926 -0.00340148 -2.99019e-13)
(-0.00304019 -0.00299465 -2.46605e-13)
(-0.00270449 -0.00269217 -1.69508e-13)
(-0.0023654 -0.00249509 -6.17507e-14)
(-0.00207011 -0.00237289 -2.27076e-13)
(-0.00180467 -0.00265483 -3.15655e-13)
(-0.00172 -0.00314687 -1.39126e-13)
(-0.0018656 -0.00378812 3.57631e-13)
(-0.0024021 -0.00444354 3.28413e-13)
(-0.00334143 -0.00476715 -2.15789e-14)
(-0.00450493 -0.00458346 -5.04686e-14)
(-0.00580791 -0.00407735 -1.59471e-13)
(-0.00697875 -0.00292339 -9.28903e-14)
(-0.00707862 -0.000509189 4.2786e-14)
(-0.00551225 0.00194113 3.30766e-14)
(-0.00305011 0.00265318 3.72122e-15)
(-0.0004239 0.00172139 -1.98493e-14)
(0.00131613 -0.000112342 7.40602e-14)
(0.000231161 -0.00135246 1.54761e-13)
(-0.00128056 -0.00140626 -1.05073e-14)
(-0.00296058 -0.000740993 2.72657e-14)
(-0.00343344 -5.36888e-05 4.74249e-14)
(-0.00380604 0.00197722 -1.85584e-14)
(-0.0211577 0.00199326 1.744e-13)
(-0.0136233 -0.00131359 7.9746e-14)
(-0.0022469 -0.000558813 -6.43247e-14)
(0.00986533 0.00308136 -1.90545e-14)
(0.000332944 -0.00918424 1.65594e-14)
(0.000782026 -0.00834878 2.03002e-14)
(0.00119914 -0.00707856 8.22599e-15)
(0.00154914 -0.00621219 9.76643e-14)
(0.00178705 -0.00520387 -1.73022e-13)
(0.00193718 -0.00427801 8.97527e-14)
(0.00217185 -0.0038722 1.51561e-13)
(0.00258034 -0.00373765 6.62117e-14)
(0.00289138 -0.00345546 -3.68048e-14)
(0.00308131 -0.00308 -3.43641e-14)
(0.00317408 -0.00269029 2.17008e-14)
(0.00317231 -0.00230504 3.71927e-14)
(0.00308398 -0.00193529 -8.99348e-14)
(0.00294849 -0.00160176 6.45187e-14)
(0.00278067 -0.00130874 1.64853e-14)
(0.00258292 -0.00105674 -1.1104e-14)
(0.00238183 -0.000852381 -5.77622e-14)
(0.00218766 -0.000688892 -5.77609e-14)
(0.00200799 -0.000557675 4.90105e-14)
(0.00184259 -0.000451555 1.42893e-14)
(0.00169381 -0.000364892 4.91116e-15)
(0.00155741 -0.000291402 5.16226e-14)
(0.00142801 -0.00022691 2.09311e-14)
(0.00129993 -0.000168792 -2.44736e-15)
(0.00117832 -0.000116147 6.83265e-15)
(0.00106607 -7.06063e-05 -4.75321e-15)
(0.000960244 -3.51758e-05 -9.34748e-15)
(0.000865957 -8.4746e-06 1.37134e-15)
(0.000780871 1.43594e-05 -1.2033e-15)
(0.000695691 3.14862e-05 -4.12865e-16)
(0.000613333 4.04166e-05 -1.07028e-15)
(0.000547661 4.60217e-05 1.16056e-15)
(0.000514847 5.27541e-05 2.8946e-15)
(0.000478114 5.49311e-05 2.44932e-15)
(0.000420476 4.51633e-05 1.40187e-15)
(0.000379536 2.12408e-05 -5.28102e-15)
(0.000355041 6.13992e-05 3.22169e-15)
(0.000359953 7.71248e-05 3.61468e-14)
(0.000108595 0.000491373 4.11684e-14)
(-9.15445e-05 -0.00810303 7.45119e-16)
(-0.000535021 -0.00769589 1.78171e-15)
(-0.000911251 -0.00669403 -2.57187e-15)
(-0.00145311 -0.00698705 3.66611e-15)
(-0.00184716 -0.00676839 -7.16072e-15)
(-0.00223738 -0.00638699 1.08579e-14)
(-0.00266095 -0.00607742 -1.31831e-14)
(-0.00291597 -0.0056055 -2.47514e-14)
(-0.003077 -0.00509661 -3.28768e-14)
(-0.00317188 -0.00462405 -4.65476e-14)
(-0.00313644 -0.00413789 1.86812e-14)
(-0.00301783 -0.00368182 1.7805e-13)
(-0.00283105 -0.00328421 2.4123e-13)
(-0.00258097 -0.0029522 3.87668e-14)
(-0.00230494 -0.00270685 4.91268e-15)
(-0.00202935 -0.00255179 1.13696e-14)
(-0.00176877 -0.00251752 -4.05475e-14)
(-0.0016173 -0.00256464 1.28463e-13)
(-0.0016289 -0.00284255 1.1742e-13)
(-0.00183617 -0.00323097 -2.70609e-13)
(-0.00234017 -0.00365071 -2.75536e-14)
(-0.00312955 -0.0038823 5.69802e-14)
(-0.00409594 -0.00376727 -7.3607e-14)
(-0.00521016 -0.00334982 7.80509e-14)
(-0.00622637 -0.00235548 1.13695e-15)
(-0.00630341 -0.000400394 -1.45236e-14)
(-0.00495872 0.00156842 -4.26017e-14)
(-0.00284862 0.0021704 1.75212e-15)
(-0.00104083 0.00140588 -4.21659e-17)
(-0.000273128 -6.27591e-05 3.50154e-14)
(-0.000627559 -0.0011785 1.7033e-14)
(-0.00142863 -0.00126954 -7.45736e-14)
(-0.00208767 -0.000799577 -3.4456e-14)
(-0.00223266 -0.000348436 1.72441e-13)
(-0.00218694 7.37151e-05 2.68638e-14)
(-0.0102616 0.00482948 -1.279e-13)
(-0.0021168 -0.00261857 -4.22431e-14)
(-0.0255889 0.00784693 5.06917e-14)
(0.0035275 0.00126904 -1.6078e-15)
(0.000325906 -0.007781 3.43741e-15)
(0.000698331 -0.00711765 -4.87327e-14)
(0.00104747 -0.00609109 2.41691e-14)
(0.00135394 -0.00538283 2.13074e-14)
(0.00157092 -0.00454703 4.61607e-14)
(0.00175861 -0.00391795 -1.54595e-14)
(0.00204153 -0.00364814 -3.71699e-14)
(0.00241628 -0.00349766 -3.78374e-15)
(0.00269622 -0.00323403 -2.61475e-15)
(0.00287231 -0.00289713 1.39886e-14)
(0.00297159 -0.00254995 4.01373e-14)
(0.00298728 -0.00220517 6.6016e-14)
(0.00292319 -0.00187006 -4.63489e-15)
(0.00281439 -0.00156446 -1.34757e-13)
(0.00267083 -0.00129222 2.62913e-14)
(0.00249731 -0.00105392 7.70035e-14)
(0.00231715 -0.000856173 5.91288e-14)
(0.00213675 -0.000694479 2.68729e-14)
(0.00196592 -0.000563425 -2.23027e-14)
(0.00180558 -0.000456883 -5.9533e-15)
(0.00165873 -0.000370009 -2.35612e-14)
(0.00152209 -0.000296953 -4.32268e-14)
(0.00139177 -0.000233436 1.78078e-14)
(0.00126319 -0.000176728 1.67801e-14)
(0.0011423 -0.000126187 2.99437e-15)
(0.00103166 -8.27177e-05 1.70048e-14)
(0.000927977 -4.82729e-05 5.94743e-15)
(0.000835411 -2.21619e-05 -1.00167e-15)
(0.000751924 3.79099e-07 1.12844e-15)
(0.000668782 1.761e-05 4.6262e-16)
(0.000588416 2.63723e-05 -1.29446e-15)
(0.000523274 3.06377e-05 -1.5307e-15)
(0.000491233 3.72715e-05 -7.75124e-16)
(0.000456125 4.27602e-05 -4.29977e-16)
(0.000400214 4.0004e-05 2.79003e-15)
(0.000355889 2.02592e-05 -4.85051e-16)
(0.000340187 2.85538e-05 1.17117e-14)
(0.000366785 2.71833e-05 -1.28603e-14)
(0.00048688 5.20398e-05 -6.19376e-15)
(-5.69345e-05 -0.00689476 3.83269e-15)
(-0.000438716 -0.00655981 -1.38182e-15)
(-0.000766449 -0.00579305 -2.59784e-15)
(-0.00123253 -0.006047 -3.58361e-15)
(-0.00157719 -0.00586288 1.34981e-14)
(-0.00191473 -0.00554464 -1.80341e-14)
(-0.00228023 -0.00530131 -5.33085e-15)
(-0.00250348 -0.00491712 3.49773e-14)
(-0.0026537 -0.00450509 1.94774e-14)
(-0.00275272 -0.00412187 3.56271e-14)
(-0.00274238 -0.00371597 8.01317e-14)
(-0.00266349 -0.00333008 6.46722e-14)
(-0.00252642 -0.00298692 -1.5249e-13)
(-0.00233326 -0.00269165 -2.45688e-13)
(-0.0021183 -0.00246649 4.21575e-14)
(-0.00189732 -0.00231812 3.12508e-13)
(-0.00169884 -0.00224593 6.40818e-14)
(-0.00155414 -0.00227059 -1.7771e-13)
(-0.00157464 -0.00252998 -3.36413e-14)
(-0.00175675 -0.00290834 3.0718e-14)
(-0.0021835 -0.00328182 -6.91069e-14)
(-0.00284772 -0.00348224 -8.93855e-14)
(-0.00366667 -0.00338255 1.02122e-14)
(-0.00459725 -0.0029794 6.9152e-14)
(-0.00540772 -0.00205959 6.00285e-14)
(-0.00546309 -0.000414412 -3.41218e-15)
(-0.00438429 0.00120858 3.58907e-14)
(-0.00266952 0.00176844 6.43519e-15)
(-0.00123175 0.00116725 6.16576e-14)
(-0.000753027 -9.62385e-05 -4.58714e-14)
(-0.00127867 -0.00106935 -1.60067e-13)
(-0.00205078 -0.00115662 -5.10211e-14)
(-0.00245907 -0.000747825 2.84603e-14)
(-0.00244536 -0.000384209 1.54244e-14)
(-0.00190852 -0.000277542 -4.2412e-15)
(0.000716198 -0.00133318 5.17849e-15)
(-0.00164514 -0.00227168 1.82127e-14)
(-0.0083012 -0.00456072 4.51188e-15)
(5.87947e-05 0.00421515 2.4484e-14)
(0.000298177 -0.00662363 -8.58825e-15)
(0.000617264 -0.00608988 -7.71498e-15)
(0.000918079 -0.00525212 -1.34554e-14)
(0.00118476 -0.00467205 -1.71962e-14)
(0.00138141 -0.00397808 2.98303e-14)
(0.00159249 -0.00356032 -4.30633e-14)
(0.00189617 -0.00338251 -1.72115e-14)
(0.00223409 -0.00322909 6.62189e-14)
(0.00248937 -0.00298895 -3.99486e-14)
(0.00265307 -0.0026899 7.04479e-14)
(0.00275665 -0.00238558 6.7761e-14)
(0.0027863 -0.00208114 4.3717e-14)
(0.00274313 -0.00178139 3.29687e-14)
(0.00265935 -0.00150552 4.90104e-14)
(0.00254097 -0.00125619 -1.39889e-14)
(0.00239113 -0.00103359 3.09869e-15)
(0.00223239 -0.00084476 3.52987e-14)
(0.0020683 -0.000686821 2.71924e-14)
(0.00190878 -0.000556559 -2.56829e-15)
(0.00175611 -0.000449449 -5.44144e-14)
(0.00161382 -0.000361496 -9.50382e-15)
(0.00147935 -0.000287776 2.08846e-16)
(0.00135015 -0.000224267 -3.83932e-14)
(0.00122263 -0.000168441 4.18554e-15)
(0.00110377 -0.000119558 -6.34561e-15)
(0.000995465 -7.7892e-05 -1.29975e-14)
(0.000894447 -4.44322e-05 9.09058e-16)
(0.000803913 -1.8859e-05 8.48612e-17)
(0.00072202 3.49212e-06 5.68773e-17)
(0.000641159 2.08495e-05 -5.04271e-16)
(0.000563209 2.96148e-05 1.1741e-15)