/*--------------------------------*- C++ -*----------------------------------*\
| =========                 |                                                 |
| \\      /  F ield         | OpenFOAM: The Open Source CFD Toolbox           |
|  \\    /   O peration     | Version:  2312                                  |
|   \\  /    A nd           | Website:  www.openfoam.com                      |
|    \\/     M anipulation  |                                                 |
\*---------------------------------------------------------------------------*/
FoamFile
{
    version     2.0;
    format      ascii;
    arch        "LSB;label=32;scalar=64";
    class       volScalarField;
    location    "250";
    object      nuTilda;
}
// * * * * * * * * * * * * * * * * * * * * * * * * * * * * * * * * * * * * * //

dimensions      [0 2 -1 0 0 0 0];

internalField   nonuniform List<scalar> 
10720
(
6.29127e-05
6.61172e-05
7.02189e-05
7.53217e-05
8.16908e-05
8.97508e-05
0.000100166
0.000113489
0.00013098
0.000154089
0.000185129
0.000227469
0.000285643
0.000367536
0.000486583
0.000664698
0.000946251
0.0013956
0.00221702
0.00359062
0.00689716
0.0127181
0.0338717
0.0760355
0.0938117
0.0947643
0.0957901
0.0993106
0.102827
0.104569
0.104544
0.10329
0.10092
0.0974901
0.092876
0.0870037
0.0785583
0.0684367
0.0333206
6.00041e-05
5.73642e-05
5.46091e-05
5.19105e-05
4.91619e-05
4.638e-05
4.36768e-05
4.15973e-05
4.34417e-05
4.72925e-05
5.28979e-05
6.05862e-05
7.1051e-05
8.55525e-05
0.000105892
0.000135052
0.00017779
0.000242185
0.00034235
0.000503132
0.000773722
0.00124198
0.00211733
0.00376933
0.00732714
0.014721
0.0324745
0.0663176
0.0934651
0.105021
0.108429
0.109371
0.109467
0.108971
0.10797
0.106573
0.104426
0.101989
0.0924524
3.80698e-05
3.78497e-05
3.76485e-05
3.74798e-05
3.72841e-05
3.71023e-05
3.69664e-05
3.68464e-05
3.67946e-05
3.68405e-05
3.69022e-05
3.75073e-05
3.96489e-05
4.42984e-05
5.39144e-05
7.20524e-05
0.000107821
0.000173877
0.000318608
0.000589519
0.00132014
0.00282996
0.00710132
0.0204629
0.0394337
0.0631275
0.0922661
0.123371
0.148441
0.162455
0.167778
0.1686
0.167011
0.163661
0.15915
0.153657
0.148351
0.139374
0.139627
3.82428e-05
3.84742e-05
3.8669e-05
3.89298e-05
3.91931e-05
3.94556e-05
3.97051e-05
3.99128e-05
3.97959e-05
3.95282e-05
3.91557e-05
3.86926e-05
3.81504e-05
3.75289e-05
3.67945e-05
3.59233e-05
3.48264e-05
3.34366e-05
3.15593e-05
2.89713e-05
2.51708e-05
1.97998e-05
1.18055e-05
4.78085e-06
7.58112e-06
0.000115447
0.000540985
0.00415633
0.0141148
0.0287185
0.0437256
0.0550607
0.0618235
0.0656055
0.0680036
0.0699946
0.0717273
0.0753021
0.0784662
4.03645e-05
4.03961e-05
4.04287e-05
4.04638e-05
4.05067e-05
4.05545e-05
4.06091e-05
4.06727e-05
4.07475e-05
4.08348e-05
4.09379e-05
4.10641e-05
4.12026e-05
4.14494e-05
4.14678e-05
4.07425e-05
3.73487e-05
3.53751e-05
1.9784e-05
5.19819e-07
0.000259675
3.68153e-05
0.00147123
0.000520035
0.00286938
0.00735187
0.0153808
0.0307949
0.0570018
0.0932877
0.132265
0.163997
0.184448
0.196298
0.202986
0.205865
0.207104
0.201054
0.209687
4.03404e-05
4.03056e-05
4.02791e-05
4.02396e-05
4.02056e-05
4.0169e-05
4.01363e-05
4.01105e-05
4.01192e-05
4.01467e-05
4.01829e-05
4.02269e-05
4.02806e-05
4.03407e-05
4.04081e-05
4.04823e-05
4.05663e-05
4.06621e-05
4.0776e-05
4.09135e-05
4.10887e-05
4.1311e-05
4.16227e-05
4.19496e-05
4.2385e-05
4.19214e-05
4.20734e-05
3.13434e-05
0.000107648
0.000790854
0.00301729
0.00754162
0.0142523
0.0224354
0.0311561
0.0395993
0.0470034
0.053678
0.0631659
4.00335e-05
4.0029e-05
4.00279e-05
4.00286e-05
4.00303e-05
4.00353e-05
4.00444e-05
4.00569e-05
4.00755e-05
4.01007e-05
4.01339e-05
4.01772e-05
4.02335e-05
4.03044e-05
4.0399e-05
4.05e-05
4.0276e-05
3.9804e-05
3.60619e-05
2.62714e-05
8.68516e-06
1.27615e-05
0
0.000106753
0.000599544
0.00161728
0.0013574
0.0016652
0.0037342
0.0133695
0.0353354
0.0722204
0.118092
0.160552
0.192457
0.214604
0.231182
0.238419
0.254363
4.00348e-05
4.00392e-05
4.0045e-05
4.00491e-05
4.00562e-05
4.006e-05
4.00624e-05
4.00641e-05
4.00601e-05
4.00551e-05
4.00486e-05
4.00417e-05
4.00352e-05
4.00289e-05
4.00227e-05
4.00162e-05
4.00094e-05
4.00019e-05
3.99925e-05
3.99831e-05
3.99731e-05
3.99624e-05
3.99498e-05
3.99381e-05
3.99254e-05
3.99298e-05
3.99162e-05
4.00266e-05
3.98724e-05
3.97769e-05
3.83524e-05
3.60608e-05
0.000232839
0.00104518
0.00304219
0.00687996
0.0131201
0.0218407
0.0392212
4.008e-05
4.0081e-05
4.00815e-05
4.00832e-05
4.0086e-05
4.00897e-05
4.00946e-05
4.01012e-05
4.01099e-05
4.01213e-05
4.01362e-05
4.01557e-05
4.01812e-05
4.02139e-05
4.02584e-05
4.031e-05
4.03863e-05
4.04258e-05
4.07727e-05
4.03941e-05
3.79354e-05
2.91092e-05
9.003e-06
4.41337e-06
0
0
0.000290596
0.00036184
0.000838013
0.000456831
0.00158721
0.00787531
0.0291822
0.0699375
0.123097
0.173971
0.216086
0.246992
0.277101
4.00802e-05
4.00777e-05
4.0079e-05
4.00771e-05
4.00787e-05
4.00765e-05
4.00726e-05
4.00691e-05
4.00671e-05
4.00666e-05
4.00665e-05
4.00664e-05
4.0067e-05
4.0068e-05
4.00698e-05
4.00721e-05
4.0075e-05
4.00784e-05
4.00825e-05
4.00871e-05
4.00922e-05
4.00978e-05
4.01042e-05
4.01112e-05
4.01203e-05
4.01282e-05
4.01527e-05
4.01151e-05
4.03768e-05
3.92928e-05
4.43756e-05
2.15097e-05
6.27332e-05
0.000250867
0.000729111
0.000716975
0.00123891
0.00164008
0.0137118
4.00688e-05
4.00684e-05
4.00689e-05
4.00694e-05
4.00696e-05
4.00704e-05
4.00715e-05
4.00729e-05
4.00751e-05
4.00783e-05
4.00826e-05
4.00885e-05
4.00966e-05
4.01075e-05
4.01226e-05
4.01428e-05
4.0169e-05
4.01987e-05
4.03051e-05
4.03907e-05
4.10355e-05
4.06943e-05
3.85026e-05
2.27657e-05
8.10177e-06
5.53636e-06
3.36423e-06
0
0
0.000101256
0.000356144
0.00179632
0.000330333
0.00848956
0.0373761
0.092121
0.159007
0.222581
0.276847
4.0068e-05
4.00667e-05
4.00684e-05
4.0068e-05
4.00712e-05
4.00707e-05
4.00681e-05
4.00659e-05
4.0064e-05
4.00629e-05
4.00621e-05
4.00612e-05
4.00608e-05
4.00605e-05
4.00605e-05
4.00606e-05
4.00608e-05
4.00612e-05
4.00617e-05
4.00621e-05
4.00625e-05
4.00628e-05
4.00629e-05
4.00623e-05
4.00621e-05
4.00627e-05
4.00634e-05
4.00667e-05
4.00658e-05
4.00825e-05
4.00507e-05
4.02415e-05
3.91153e-05
3.61192e-05
5.66173e-06
0.000171482
0.000293683
0.000431021
0.0023797
4.00693e-05
4.00697e-05
4.007e-05
4.00701e-05
4.00703e-05
4.00705e-05
4.00708e-05
4.00714e-05
4.00723e-05
4.00736e-05
4.00755e-05
4.00782e-05
4.0082e-05
4.00872e-05
4.00945e-05
4.01048e-05
4.01185e-05
4.01329e-05
4.01537e-05
4.01682e-05
4.02567e-05
4.05402e-05
4.16618e-05
4.08219e-05
3.54233e-05
2.78555e-05
1.66572e-05
7.73963e-06
5.87712e-06
1.77834e-06
0
0
7.53325e-05
0.00199235
0.00151056
0.0211054
0.0768989
0.164483
0.250504
4.00684e-05
4.00665e-05
4.00672e-05
4.00666e-05
4.00697e-05
4.00696e-05
4.00674e-05
4.00652e-05
4.00635e-05
4.00626e-05
4.00619e-05
4.00616e-05
4.00614e-05
4.00615e-05
4.00614e-05
4.00615e-05
4.00618e-05
4.00622e-05
4.00628e-05
4.00636e-05
4.00645e-05
4.00656e-05
4.00668e-05
4.00683e-05
4.00702e-05
4.00725e-05
4.00757e-05
4.00796e-05
4.00845e-05
4.00907e-05
4.00984e-05
4.01074e-05
4.01515e-05
3.89588e-05
3.41072e-05
1.20299e-05
8.04665e-06
1.52732e-06
8.7559e-05
4.00686e-05
4.00688e-05
4.00694e-05
4.00693e-05
4.0069e-05
4.00688e-05
4.00685e-05
4.00682e-05
4.00681e-05
4.00681e-05
4.00682e-05
4.00686e-05
4.00693e-05
4.00704e-05
4.00721e-05
4.00746e-05
4.00784e-05
4.00826e-05
4.00881e-05
4.00972e-05
4.00795e-05
4.00848e-05
4.03097e-05
4.11273e-05
4.1595e-05
4.10999e-05
3.907e-05
3.45132e-05
2.8482e-05
8.5038e-06
7.08224e-06
1.56694e-06
0
0
0.000349455
0.00525871
0.0154711
0.0888311
0.198016
4.00674e-05
4.00653e-05
4.00654e-05
4.00646e-05
4.00676e-05
4.00679e-05
4.00662e-05
4.00643e-05
4.00627e-05
4.00619e-05
4.00613e-05
4.00611e-05
4.00609e-05
4.00611e-05
4.00613e-05
4.00615e-05
4.00615e-05
4.00616e-05
4.00617e-05
4.00619e-05
4.00621e-05
4.00624e-05
4.00627e-05
4.0063e-05
4.00632e-05
4.00635e-05
4.0064e-05
4.00645e-05
4.0065e-05
4.00652e-05
4.00661e-05
4.00611e-05
4.00814e-05
4.00176e-05
4.04524e-05
3.9913e-05
3.48027e-05
8.9979e-06
2.08845e-05
4.00684e-05
4.00687e-05
4.0069e-05
4.00687e-05
4.00683e-05
4.00678e-05
4.00673e-05
4.00671e-05
4.00669e-05
4.00667e-05
4.00668e-05
4.00669e-05
4.00673e-05
4.00681e-05
4.00692e-05
4.00709e-05
4.00735e-05
4.0077e-05
4.00802e-05
4.0085e-05
4.00862e-05
4.00745e-05
4.00335e-05
4.01649e-05
4.05746e-05
4.10677e-05
4.16586e-05
4.19357e-05
4.14608e-05
3.75495e-05
3.22306e-05
7.36166e-06
5.86664e-06
0
0
0
0.0042259
0.0291028
0.130817
4.00674e-05
4.00651e-05
4.00645e-05
4.00634e-05
4.00663e-05
4.00668e-05
4.00655e-05
4.00636e-05
4.00623e-05
4.00615e-05
4.00611e-05
4.00609e-05
4.00608e-05
4.00609e-05
4.00611e-05
4.00613e-05
4.00616e-05
4.00618e-05
4.00619e-05
4.00619e-05
4.0062e-05
4.00622e-05
4.00625e-05
4.00629e-05
4.00633e-05
4.00639e-05
4.00648e-05
4.00661e-05
4.00677e-05
4.00697e-05
4.00723e-05
4.00751e-05
4.00796e-05
4.00726e-05
4.0106e-05
4.02109e-05
4.11056e-05
3.69223e-05
5.51653e-06
4.00683e-05
4.00683e-05
4.00684e-05
4.00679e-05
4.00673e-05
4.00668e-05
4.00663e-05
4.00658e-05
4.00654e-05
4.00651e-05
4.00647e-05
4.00645e-05
4.00644e-05
4.00643e-05
4.00642e-05
4.00642e-05
4.00644e-05
4.00645e-05
4.00648e-05
4.0066e-05
4.00694e-05
4.0072e-05
4.00583e-05
4.00325e-05
4.00644e-05
4.01911e-05
4.04764e-05
4.09097e-05
4.14608e-05
4.20215e-05
4.23532e-05
3.80981e-05
2.63302e-05
8.09007e-06
2.72605e-07
0
5.45072e-05
0.00251729
0.0715974
4.00674e-05
4.00651e-05
4.0064e-05
4.00626e-05
4.00652e-05
4.00658e-05
4.00647e-05
4.00631e-05
4.0062e-05
4.00612e-05
4.0061e-05
4.00607e-05
4.00605e-05
4.00606e-05
4.00607e-05
4.0061e-05
4.00613e-05
4.00616e-05
4.00618e-05
4.00621e-05
4.00623e-05
4.00624e-05
4.00624e-05
4.00624e-05
4.00625e-05
4.00626e-05
4.0063e-05
4.00635e-05
4.00641e-05
4.00649e-05
4.00657e-05
4.00671e-05
4.00664e-05
4.00758e-05
4.00389e-05
4.02187e-05
3.95602e-05
4.44848e-05
2.13094e-05
4.00682e-05
4.00679e-05
4.00677e-05
4.00671e-05
4.00664e-05
4.00658e-05
4.00653e-05
4.00649e-05
4.00645e-05
4.00642e-05
4.0064e-05
4.00639e-05
4.00639e-05
4.00639e-05
4.00641e-05
4.00644e-05
4.0065e-05
4.00659e-05
4.00669e-05
4.00678e-05
4.0069e-05
4.00709e-05
4.00718e-05
4.00629e-05
4.00473e-05
4.00399e-05
4.00563e-05
4.01358e-05
4.02942e-05
4.06946e-05
4.1355e-05
4.25773e-05
4.17684e-05
3.38826e-05
1.25501e-06
3.40994e-08
0
0.0012748
0.032822
4.00676e-05
4.00653e-05
4.00637e-05
4.0062e-05
4.00643e-05
4.0065e-05
4.00641e-05
4.00626e-05
4.00616e-05
4.0061e-05
4.00608e-05
4.00605e-05
4.00603e-05
4.00603e-05
4.00604e-05
4.00606e-05
4.00609e-05
4.00612e-05
4.00615e-05
4.00618e-05
4.00621e-05
4.00623e-05
4.00625e-05
4.00626e-05
4.00626e-05
4.00627e-05
4.0063e-05
4.00634e-05
4.0064e-05
4.00649e-05
4.00659e-05
4.00675e-05
4.00675e-05
4.00759e-05
4.00473e-05
4.01797e-05
3.96059e-05
4.19292e-05
3.64699e-05
4.0068e-05
4.00674e-05
4.0067e-05
4.00663e-05
4.00656e-05
4.00649e-05
4.00644e-05
4.0064e-05
4.00636e-05
4.00634e-05
4.00632e-05
4.0063e-05
4.00628e-05
4.00628e-05
4.00627e-05
4.00628e-05
4.00629e-05
4.00631e-05
4.00634e-05
4.00641e-05
4.00652e-05
4.00668e-05
4.0069e-05
4.00701e-05
4.00679e-05
4.00626e-05
4.00532e-05
4.00441e-05
4.0031e-05
4.00675e-05
4.01651e-05
4.07526e-05
4.18123e-05
4.32139e-05
3.60097e-05
7.98133e-06
0
0.000282305
0.0128906
4.00676e-05
4.00654e-05
4.00635e-05
4.00615e-05
4.00636e-05
4.00643e-05
4.00635e-05
4.00621e-05
4.00613e-05
4.00608e-05
4.00605e-05
4.00603e-05
4.006e-05
4.006e-05
4.006e-05
4.00601e-05
4.00604e-05
4.00607e-05
4.0061e-05
4.00614e-05
4.00618e-05
4.00621e-05
4.00624e-05
4.00627e-05
4.00629e-05
4.0063e-05
4.0063e-05
4.00632e-05
4.00635e-05
4.00639e-05
4.00645e-05
4.00654e-05
4.00659e-05
4.00688e-05
4.00624e-05
4.0095e-05
3.99846e-05
4.02563e-05
4.01716e-05
4.00676e-05
4.00668e-05
4.00662e-05
4.00655e-05
4.00648e-05
4.00642e-05
4.00637e-05
4.00633e-05
4.0063e-05
4.00628e-05
4.00626e-05
4.00625e-05
4.00624e-05
4.00624e-05
4.00624e-05
4.00625e-05
4.00627e-05
4.0063e-05
4.00634e-05
4.00639e-05
4.00646e-05
4.00655e-05
4.00668e-05
4.00684e-05
4.00699e-05
4.00713e-05
4.00722e-05
4.0071e-05
4.00608e-05
4.00406e-05
3.99986e-05
4.00016e-05
4.02755e-05
4.12148e-05
4.41683e-05
3.20606e-05
8.78466e-07
9.82251e-05
0.00427799
4.00675e-05
4.00655e-05
4.00635e-05
4.00612e-05
4.0063e-05
4.00637e-05
4.0063e-05
4.00617e-05
4.0061e-05
4.00605e-05
4.00602e-05
4.006e-05
4.00597e-05
4.00596e-05
4.00595e-05
4.00597e-05
4.00599e-05
4.00602e-05
4.00606e-05
4.0061e-05
4.00614e-05
4.00618e-05
4.00622e-05
4.00625e-05
4.00628e-05
4.0063e-05
4.00631e-05
4.00631e-05
4.00633e-05
4.00636e-05
4.0064e-05
4.00646e-05
4.00655e-05
4.00662e-05
4.00682e-05
4.00648e-05
4.00911e-05
3.99722e-05
4.03495e-05
4.0067e-05
4.00661e-05
4.00655e-05
4.00648e-05
4.00641e-05
4.00634e-05
4.0063e-05
4.00627e-05
4.00625e-05
4.00623e-05
4.00622e-05
4.00622e-05
4.00621e-05
4.00621e-05
4.00621e-05
4.00622e-05
4.00622e-05
4.00624e-05
4.00626e-05
4.0063e-05
4.00636e-05
4.00643e-05
4.00653e-05
4.00665e-05
4.0068e-05
4.00699e-05
4.00725e-05
4.00762e-05
4.00796e-05
4.00776e-05
4.00637e-05
4.001e-05
3.99677e-05
3.99695e-05
4.11451e-05
4.67155e-05
8.20074e-06
2.61897e-05
0.00108825
4.00672e-05
4.00655e-05
4.00635e-05
4.00611e-05
4.00625e-05
4.00631e-05
4.00625e-05
4.00614e-05
4.00607e-05
4.00602e-05
4.00599e-05
4.00597e-05
4.00594e-05
4.00592e-05
4.00591e-05
4.00593e-05
4.00595e-05
4.00598e-05
4.00601e-05
4.00605e-05
4.00609e-05
4.00614e-05
4.00618e-05
4.00622e-05
4.00626e-05
4.00629e-05
4.00631e-05
4.00631e-05
4.00631e-05
4.00633e-05
4.00635e-05
4.00639e-05
4.00645e-05
4.00649e-05
4.0067e-05
4.00633e-05
4.00829e-05
4.00249e-05
4.01459e-05
4.00664e-05
4.00654e-05
4.00647e-05
4.00641e-05
4.00634e-05
4.00628e-05
4.00624e-05
4.00622e-05
4.00621e-05
4.0062e-05
4.0062e-05
4.0062e-05
4.0062e-05
4.00621e-05
4.00621e-05
4.00622e-05
4.00622e-05
4.00624e-05
4.00626e-05
4.00629e-05
4.00633e-05
4.00638e-05
4.00645e-05
4.00654e-05
4.00667e-05
4.00682e-05
4.00701e-05
4.00729e-05
4.00772e-05
4.00823e-05
4.00868e-05
4.00826e-05
4.00256e-05
4.00554e-05
3.91983e-05
4.50366e-05
3.16476e-05
3.22528e-06
9.32736e-05
4.00669e-05
4.00655e-05
4.00635e-05
4.0061e-05
4.00622e-05
4.00627e-05
4.00621e-05
4.00611e-05
4.00604e-05
4.00599e-05
4.00596e-05
4.00593e-05
4.0059e-05
4.00589e-05
4.00588e-05
4.00589e-05
4.0059e-05
4.00593e-05
4.00596e-05
4.006e-05
4.00604e-05
4.00609e-05
4.00614e-05
4.00618e-05
4.00623e-05
4.00626e-05
4.00629e-05
4.00631e-05
4.00631e-05
4.00631e-05
4.00633e-05
4.00635e-05
4.00639e-05
4.00644e-05
4.00654e-05
4.00651e-05
4.00698e-05
4.00634e-05
4.00732e-05
4.00658e-05
4.00648e-05
4.00641e-05
4.00634e-05
4.00628e-05
4.00623e-05
4.0062e-05
4.00619e-05
4.00619e-05
4.00619e-05
4.0062e-05
4.0062e-05
4.00621e-05
4.00622e-05
4.00622e-05
4.00623e-05
4.00624e-05
4.00625e-05
4.00626e-05
4.00628e-05
4.00632e-05
4.00636e-05
4.00641e-05
4.00648e-05
4.00658e-05
4.00671e-05
4.00687e-05
4.00707e-05
4.00733e-05
4.00774e-05
4.00818e-05
4.0096e-05
4.00652e-05
4.01767e-05
3.95474e-05
4.06019e-05
4.57695e-05
2.17116e-06
2.1484e-05
4.00665e-05
4.00654e-05
4.00634e-05
4.00609e-05
4.00619e-05
4.00623e-05
4.00617e-05
4.00608e-05
4.00601e-05
4.00596e-05
4.00593e-05
4.0059e-05
4.00587e-05
4.00585e-05
4.00584e-05
4.00585e-05
4.00586e-05
4.00588e-05
4.00592e-05
4.00595e-05
4.006e-05
4.00605e-05
4.00609e-05
4.00614e-05
4.00619e-05
4.00623e-05
4.00627e-05
4.00629e-05
4.00631e-05
4.00631e-05
4.00632e-05
4.00633e-05
4.00635e-05
4.00639e-05
4.00644e-05
4.00652e-05
4.00656e-05
4.00701e-05
4.00645e-05
4.00652e-05
4.00642e-05
4.00635e-05
4.00629e-05
4.00623e-05
4.00619e-05
4.00617e-05
4.00617e-05
4.00618e-05
4.00619e-05
4.0062e-05
4.00621e-05
4.00622e-05
4.00623e-05
4.00624e-05
4.00625e-05
4.00625e-05
4.00626e-05
4.00628e-05
4.0063e-05
4.00632e-05
4.00635e-05
4.0064e-05
4.00645e-05
4.00653e-05
4.00664e-05
4.00678e-05
4.00695e-05
4.00714e-05
4.00742e-05
4.00766e-05
4.0086e-05
4.00833e-05
4.0103e-05
4.02312e-05
3.84477e-05
4.87942e-05
3.91846e-06
1.09368e-07
4.00661e-05
4.00653e-05
4.00634e-05
4.00609e-05
4.00616e-05
4.00619e-05
4.00614e-05
4.00605e-05
4.00598e-05
4.00593e-05
4.00589e-05
4.00587e-05
4.00584e-05
4.00582e-05
4.00581e-05
4.00581e-05
4.00582e-05
4.00585e-05
4.00587e-05
4.00591e-05
4.00595e-05
4.006e-05
4.00605e-05
4.00611e-05
4.00616e-05
4.0062e-05
4.00624e-05
4.00628e-05
4.0063e-05
4.00631e-05
4.00631e-05
4.00632e-05
4.00633e-05
4.00635e-05
4.00639e-05
4.00645e-05
4.00648e-05
4.00685e-05
4.0066e-05
4.00647e-05
4.00637e-05
4.0063e-05
4.00624e-05
4.00619e-05
4.00616e-05
4.00616e-05
4.00616e-05
4.00618e-05
4.00619e-05
4.00621e-05
4.00623e-05
4.00624e-05
4.00625e-05
4.00626e-05
4.00627e-05
4.00628e-05
4.00629e-05
4.0063e-05
4.00631e-05
4.00633e-05
4.00636e-05
4.0064e-05
4.00644e-05
4.00651e-05
4.00659e-05
4.00671e-05
4.00686e-05
4.00704e-05
4.00725e-05
4.0075e-05
4.00769e-05
4.00936e-05
4.00283e-05
4.044e-05
3.85661e-05
4.53192e-05
2.83208e-05
3.79637e-06
4.00656e-05
4.0065e-05
4.00633e-05
4.00608e-05
4.00613e-05
4.00616e-05
4.00611e-05
4.00602e-05
4.00595e-05
4.0059e-05
4.00586e-05
4.00584e-05
4.00581e-05
4.00579e-05
4.00578e-05
4.00578e-05
4.00579e-05
4.00581e-05
4.00584e-05
4.00587e-05
4.00591e-05
4.00596e-05
4.00601e-05
4.00607e-05
4.00612e-05
4.00617e-05
4.00621e-05
4.00625e-05
4.00628e-05
4.0063e-05
4.00632e-05
4.00632e-05
4.00632e-05
4.00633e-05
4.00636e-05
4.0064e-05
4.00644e-05
4.00668e-05
4.00664e-05
4.00642e-05
4.00633e-05
4.00625e-05
4.0062e-05
4.00616e-05
4.00614e-05
4.00615e-05
4.00617e-05
4.00618e-05
4.0062e-05
4.00622e-05
4.00624e-05
4.00626e-05
4.00627e-05
4.00628e-05
4.00629e-05
4.0063e-05
4.00631e-05
4.00632e-05
4.00633e-05
4.00635e-05
4.00637e-05
4.0064e-05
4.00644e-05
4.00649e-05
4.00657e-05
4.00667e-05
4.0068e-05
4.00696e-05
4.00713e-05
4.00742e-05
4.00732e-05
4.00931e-05
4.00252e-05
4.03163e-05
3.94127e-05
4.14515e-05
4.14524e-05
1.37402e-05
4.00651e-05
4.00648e-05
4.00631e-05
4.00608e-05
4.00611e-05
4.00612e-05
4.00607e-05
4.00599e-05
4.00592e-05
4.00587e-05
4.00583e-05
4.00581e-05
4.00578e-05
4.00576e-05
4.00575e-05
4.00575e-05
4.00576e-05
4.00578e-05
4.0058e-05
4.00584e-05
4.00588e-05
4.00593e-05
4.00598e-05
4.00603e-05
4.00608e-05
4.00614e-05
4.00618e-05
4.00622e-05
4.00626e-05
4.00629e-05
4.00631e-05
4.00632e-05
4.00632e-05
4.00632e-05
4.00634e-05
4.00637e-05
4.0064e-05
4.00659e-05
4.00659e-05
4.00638e-05
4.00628e-05
4.0062e-05
4.00616e-05
4.00614e-05
4.00613e-05
4.00615e-05
4.00617e-05
4.00619e-05
4.00622e-05
4.00624e-05
4.00626e-05
4.00627e-05
4.00629e-05
4.0063e-05
4.00631e-05
4.00632e-05
4.00633e-05
4.00634e-05
4.00636e-05
4.00637e-05
4.00639e-05
4.00641e-05
4.00644e-05
4.00649e-05
4.00655e-05
4.00664e-05
4.00675e-05
4.00689e-05
4.00704e-05
4.0073e-05
4.00727e-05
4.00854e-05
4.0055e-05
4.01508e-05
4.0025e-05
3.96253e-05
4.39901e-05
2.85931e-05
4.00646e-05
4.00644e-05
4.0063e-05
4.00607e-05
4.00608e-05
4.00609e-05
4.00604e-05
4.00596e-05
4.00589e-05
4.00584e-05
4.00581e-05
4.00578e-05
4.00575e-05
4.00573e-05
4.00572e-05
4.00573e-05
4.00573e-05
4.00575e-05
4.00578e-05
4.00581e-05
4.00584e-05
4.00589e-05
4.00594e-05
4.00599e-05
4.00605e-05
4.0061e-05
4.00615e-05
4.00619e-05
4.00623e-05
4.00627e-05
4.00629e-05
4.00631e-05
4.00633e-05
4.00632e-05
4.00633e-05
4.00634e-05
4.00637e-05
4.00654e-05
4.00653e-05
4.00633e-05
4.00624e-05
4.00616e-05
4.00614e-05
4.00613e-05
4.00613e-05
4.00615e-05
4.00618e-05
4.0062e-05
4.00623e-05
4.00625e-05
4.00627e-05
4.00629e-05
4.00631e-05
4.00632e-05
4.00634e-05
4.00635e-05
4.00636e-05
4.00637e-05
4.00638e-05
4.0064e-05
4.00641e-05
4.00644e-05
4.00646e-05
4.0065e-05
4.00655e-05
4.00662e-05
4.00672e-05
4.00684e-05
4.00698e-05
4.00718e-05
4.0073e-05
4.00779e-05
4.00777e-05
4.0065e-05
4.02325e-05
3.93767e-05
4.25493e-05
3.71288e-05
4.00641e-05
4.00641e-05
4.00628e-05
4.00606e-05
4.00606e-05
4.00606e-05
4.00601e-05
4.00593e-05
4.00587e-05
4.00581e-05
4.00578e-05
4.00575e-05
4.00572e-05
4.00571e-05
4.0057e-05
4.0057e-05
4.00571e-05
4.00573e-05
4.00575e-05
4.00578e-05
4.00581e-05
4.00586e-05
4.0059e-05
4.00596e-05
4.00601e-05
4.00606e-05
4.00611e-05
4.00615e-05
4.0062e-05
4.00624e-05
4.00627e-05
4.0063e-05
4.00632e-05
4.00632e-05
4.00633e-05
4.00634e-05
4.00636e-05
4.0065e-05
4.00649e-05
4.00629e-05
4.0062e-05
4.00613e-05
4.00612e-05
4.00612e-05
4.00613e-05
4.00615e-05
4.00618e-05
4.00621e-05
4.00624e-05
4.00626e-05
4.00629e-05
4.00631e-05
4.00633e-05
4.00634e-05
4.00636e-05
4.00637e-05
4.00638e-05
4.0064e-05
4.00641e-05
4.00642e-05
4.00644e-05
4.00646e-05
4.00648e-05
4.00651e-05
4.00656e-05
4.00662e-05
4.0067e-05
4.00681e-05
4.00693e-05
4.00709e-05
4.00729e-05
4.00739e-05
4.00844e-05
4.00488e-05
4.02127e-05
3.96809e-05
4.0959e-05
4.01636e-05
4.00637e-05
4.00637e-05
4.00625e-05
4.00605e-05
4.00603e-05
4.00603e-05
4.00598e-05
4.0059e-05
4.00584e-05
4.00579e-05
4.00575e-05
4.00572e-05
4.0057e-05
4.00569e-05
4.00568e-05
4.00568e-05
4.00569e-05
4.0057e-05
4.00572e-05
4.00575e-05
4.00578e-05
4.00582e-05
4.00587e-05
4.00592e-05
4.00597e-05
4.00602e-05
4.00607e-05
4.00612e-05
4.00616e-05
4.00621e-05
4.00624e-05
4.00628e-05
4.0063e-05
4.00632e-05
4.00633e-05
4.00633e-05
4.00634e-05
4.00646e-05
4.00645e-05
4.00625e-05
4.00617e-05
4.00611e-05
4.00611e-05
4.00611e-05
4.00613e-05
4.00616e-05
4.00619e-05
4.00622e-05
4.00625e-05
4.00628e-05
4.0063e-05
4.00633e-05
4.00635e-05
4.00637e-05
4.00638e-05
4.0064e-05
4.00641e-05
4.00642e-05
4.00644e-05
4.00645e-05
4.00647e-05
4.00649e-05
4.00651e-05
4.00654e-05
4.00657e-05
4.00663e-05
4.0067e-05
4.00679e-05
4.0069e-05
4.00703e-05
4.00724e-05
4.00727e-05
4.00821e-05
4.006e-05
4.01414e-05
3.99605e-05
4.01824e-05
4.06217e-05
4.00633e-05
4.00634e-05
4.00623e-05
4.00603e-05
4.00601e-05
4.006e-05
4.00594e-05
4.00587e-05
4.00581e-05
4.00576e-05
4.00572e-05
4.00569e-05
4.00567e-05
4.00566e-05
4.00566e-05
4.00566e-05
4.00567e-05
4.00568e-05
4.0057e-05
4.00572e-05
4.00575e-05
4.00579e-05
4.00583e-05
4.00588e-05
4.00593e-05
4.00598e-05
4.00603e-05
4.00608e-05
4.00612e-05
4.00617e-05
4.00621e-05
4.00625e-05
4.00628e-05
4.00631e-05
4.00632e-05
4.00632e-05
4.00633e-05
4.00643e-05
4.00642e-05
4.00622e-05
4.00615e-05
4.00609e-05
4.0061e-05
4.00611e-05
4.00613e-05
4.00616e-05
4.00619e-05
4.00623e-05
4.00626e-05
4.00629e-05
4.00632e-05
4.00634e-05
4.00637e-05
4.00639e-05
4.00641e-05
4.00642e-05
4.00644e-05
4.00645e-05
4.00647e-05
4.00648e-05
4.0065e-05
4.00652e-05
4.00654e-05
4.00656e-05
4.0066e-05
4.00664e-05
4.0067e-05
4.00678e-05
4.00689e-05
4.007e-05
4.00718e-05
4.00726e-05
4.0078e-05
4.00718e-05
4.00938e-05
4.0085e-05
3.9989e-05
4.0388e-05
4.00629e-05
4.0063e-05
4.0062e-05
4.00602e-05
4.00598e-05
4.00596e-05
4.00591e-05
4.00584e-05
4.00578e-05
4.00573e-05
4.00569e-05
4.00567e-05
4.00565e-05
4.00564e-05
4.00563e-05
4.00564e-05
4.00564e-05
4.00565e-05
4.00567e-05
4.00569e-05
4.00572e-05
4.00575e-05
4.00579e-05
4.00584e-05
4.00589e-05
4.00594e-05
4.00599e-05
4.00603e-05
4.00608e-05
4.00613e-05
4.00618e-05
4.00622e-05
4.00626e-05
4.00629e-05
4.00631e-05
4.00632e-05
4.00632e-05
4.0064e-05
4.0064e-05
4.00619e-05
4.00612e-05
4.00608e-05
4.00609e-05
4.00611e-05
4.00613e-05
4.00617e-05
4.0062e-05
4.00624e-05
4.00627e-05
4.0063e-05
4.00633e-05
4.00636e-05
4.00639e-05
4.00641e-05
4.00643e-05
4.00645e-05
4.00646e-05
4.00648e-05
4.0065e-05
4.00651e-05
4.00653e-05
4.00655e-05
4.00657e-05
4.00659e-05
4.00662e-05
4.00666e-05
4.00672e-05
4.00679e-05
4.00688e-05
4.00698e-05
4.00713e-05
4.00726e-05
4.00753e-05
4.00772e-05
4.00763e-05
4.01083e-05
4.00125e-05
4.0174e-05
4.00625e-05
4.00627e-05
4.00618e-05
4.006e-05
4.00596e-05
4.00593e-05
4.00588e-05
4.00581e-05
4.00575e-05
4.0057e-05
4.00567e-05
4.00564e-05
4.00562e-05
4.00561e-05
4.00561e-05
4.00561e-05
4.00562e-05
4.00563e-05
4.00564e-05
4.00566e-05
4.00569e-05
4.00572e-05
4.00576e-05
4.0058e-05
4.00585e-05
4.00589e-05
4.00594e-05
4.00599e-05
4.00604e-05
4.00609e-05
4.00614e-05
4.00618e-05
4.00623e-05
4.00626e-05
4.00629e-05
4.00631e-05
4.00631e-05
4.00637e-05
4.00638e-05
4.00616e-05
4.0061e-05
4.00606e-05
4.00608e-05
4.0061e-05
4.00613e-05
4.00617e-05
4.00621e-05
4.00625e-05
4.00628e-05
4.00632e-05
4.00635e-05
4.00638e-05
4.0064e-05
4.00643e-05
4.00645e-05
4.00647e-05
4.00649e-05
4.00651e-05
4.00653e-05
4.00654e-05
4.00656e-05
4.00658e-05
4.0066e-05
4.00662e-05
4.00665e-05
4.00669e-05
4.00674e-05
4.0068e-05
4.00688e-05
4.00697e-05
4.0071e-05
4.00725e-05
4.0074e-05
4.00778e-05
4.00743e-05
4.00979e-05
4.00604e-05
4.00903e-05
4.00621e-05
4.00623e-05
4.00615e-05
4.00598e-05
4.00593e-05
4.0059e-05
4.00584e-05
4.00577e-05
4.00571e-05
4.00567e-05
4.00564e-05
4.00561e-05
4.0056e-05
4.00559e-05
4.00558e-05
4.00558e-05
4.00559e-05
4.0056e-05
4.00561e-05
4.00563e-05
4.00565e-05
4.00568e-05
4.00572e-05
4.00576e-05
4.00581e-05
4.00585e-05
4.0059e-05
4.00595e-05
4.006e-05
4.00605e-05
4.0061e-05
4.00615e-05
4.00619e-05
4.00623e-05
4.00627e-05
4.0063e-05
4.00629e-05
4.00634e-05
4.00635e-05
4.00613e-05
4.00608e-05
4.00605e-05
4.00607e-05
4.0061e-05
4.00613e-05
4.00617e-05
4.00621e-05
4.00625e-05
4.00629e-05
4.00633e-05
4.00636e-05
4.00639e-05
4.00642e-05
4.00645e-05
4.00647e-05
4.0065e-05
4.00652e-05
4.00654e-05
4.00656e-05
4.00658e-05
4.0066e-05
4.00662e-05
4.00664e-05
4.00666e-05
4.00668e-05
4.00672e-05
4.00676e-05
4.00682e-05
4.00689e-05
4.00697e-05
4.00708e-05
4.00723e-05
4.00736e-05
4.00768e-05
4.0076e-05
4.00865e-05
4.00831e-05
4.00785e-05
4.00617e-05
4.00619e-05
4.00612e-05
4.00596e-05
4.0059e-05
4.00586e-05
4.0058e-05
4.00574e-05
4.00568e-05
4.00564e-05
4.0056e-05
4.00558e-05
4.00557e-05
4.00556e-05
4.00555e-05
4.00556e-05
4.00556e-05
4.00557e-05
4.00558e-05
4.0056e-05
4.00562e-05
4.00565e-05
4.00568e-05
4.00572e-05
4.00577e-05
4.00581e-05
4.00585e-05
4.0059e-05
4.00595e-05
4.006e-05
4.00605e-05
4.0061e-05
4.00615e-05
4.0062e-05
4.00624e-05
4.00627e-05
4.00628e-05
4.00631e-05
4.00633e-05
4.0061e-05
4.00606e-05
4.00604e-05
4.00607e-05
4.0061e-05
4.00613e-05
4.00618e-05
4.00622e-05
4.00626e-05
4.0063e-05
4.00634e-05
4.00638e-05
4.00641e-05
4.00644e-05
4.00647e-05
4.0065e-05
4.00652e-05
4.00654e-05
4.00657e-05
4.00659e-05
4.00661e-05
4.00663e-05
4.00665e-05
4.00667e-05
4.00669e-05
4.00672e-05
4.00675e-05
4.00679e-05
4.00684e-05
4.0069e-05
4.00698e-05
4.00708e-05
4.00721e-05
4.00734e-05
4.00758e-05
4.00772e-05
4.00812e-05
4.00869e-05
4.00849e-05
4.00614e-05
4.00616e-05
4.00608e-05
4.00593e-05
4.00587e-05
4.00583e-05
4.00577e-05
4.0057e-05
4.00564e-05
4.0056e-05
4.00557e-05
4.00555e-05
4.00553e-05
4.00553e-05
4.00552e-05
4.00553e-05
4.00553e-05
4.00554e-05
4.00555e-05
4.00557e-05
4.00559e-05
4.00561e-05
4.00565e-05
4.00568e-05
4.00572e-05
4.00577e-05
4.00581e-05
4.00585e-05
4.0059e-05
4.00595e-05
4.00601e-05
4.00606e-05
4.00611e-05
4.00616e-05
4.0062e-05
4.00624e-05
4.00626e-05
4.00628e-05
4.00631e-05
4.00607e-05
4.00604e-05
4.00602e-05
4.00606e-05
4.00609e-05
4.00613e-05
4.00618e-05
4.00623e-05
4.00627e-05
4.00631e-05
4.00635e-05
4.00639e-05
4.00643e-05
4.00646e-05
4.00649e-05
4.00652e-05
4.00654e-05
4.00657e-05
4.00659e-05
4.00662e-05
4.00664e-05
4.00666e-05
4.00668e-05
4.00671e-05
4.00673e-05
4.00675e-05
4.00678e-05
4.00682e-05
4.00687e-05
4.00692e-05
4.007e-05
4.00709e-05
4.0072e-05
4.00734e-05
4.00752e-05
4.00773e-05
4.00798e-05
4.00844e-05
4.00892e-05
4.0061e-05
4.00612e-05
4.00605e-05
4.00591e-05
4.00584e-05
4.00579e-05
4.00573e-05
4.00566e-05
4.0056e-05
4.00557e-05
4.00553e-05
4.00551e-05
4.0055e-05
4.00549e-05
4.00549e-05
4.00549e-05
4.0055e-05
4.00551e-05
4.00552e-05
4.00553e-05
4.00555e-05
4.00558e-05
4.00561e-05
4.00564e-05
4.00568e-05
4.00572e-05
4.00576e-05
4.00581e-05
4.00585e-05
4.00591e-05
4.00596e-05
4.00601e-05
4.00607e-05
4.00612e-05
4.00617e-05
4.00621e-05
4.00624e-05
4.00625e-05
4.00629e-05
4.00605e-05
4.00602e-05
4.00601e-05
4.00605e-05
4.00609e-05
4.00613e-05
4.00618e-05
4.00623e-05
4.00628e-05
4.00632e-05
4.00637e-05
4.0064e-05
4.00644e-05
4.00648e-05
4.00651e-05
4.00654e-05
4.00657e-05
4.00659e-05
4.00662e-05
4.00664e-05
4.00667e-05
4.00669e-05
4.00672e-05
4.00674e-05
4.00676e-05
4.00679e-05
4.00682e-05
4.00685e-05
4.0069e-05
4.00695e-05
4.00702e-05
4.0071e-05
4.0072e-05
4.00733e-05
4.00749e-05
4.00769e-05
4.00796e-05
4.0082e-05
4.00895e-05
4.00607e-05
4.00609e-05
4.00602e-05
4.00588e-05
4.00581e-05
4.00575e-05
4.00569e-05
4.00562e-05
4.00557e-05
4.00553e-05
4.0055e-05
4.00548e-05
4.00547e-05
4.00546e-05
4.00546e-05
4.00546e-05
4.00546e-05
4.00547e-05
4.00548e-05
4.0055e-05
4.00551e-05
4.00554e-05
4.00556e-05
4.0056e-05
4.00563e-05
4.00567e-05
4.00571e-05
4.00576e-05
4.0058e-05
4.00585e-05
4.00591e-05
4.00596e-05
4.00602e-05
4.00607e-05
4.00612e-05
4.00617e-05
4.00621e-05
4.00622e-05
4.00627e-05
4.00602e-05
4.006e-05
4.006e-05
4.00604e-05
4.00608e-05
4.00613e-05
4.00618e-05
4.00623e-05
4.00628e-05
4.00633e-05
4.00638e-05
4.00642e-05
4.00646e-05
4.00649e-05
4.00653e-05
4.00656e-05
4.00659e-05
4.00662e-05
4.00665e-05
4.00667e-05
4.0067e-05
4.00673e-05
4.00675e-05
4.00678e-05
4.0068e-05
4.00683e-05
4.00686e-05
4.00689e-05
4.00693e-05
4.00698e-05
4.00704e-05
4.00712e-05
4.00721e-05
4.00733e-05
4.00748e-05
4.00766e-05
4.00794e-05
4.00807e-05
4.00882e-05
4.00604e-05
4.00605e-05
4.00598e-05
4.00585e-05
4.00577e-05
4.00571e-05
4.00565e-05
4.00558e-05
4.00552e-05
4.00549e-05
4.00546e-05
4.00544e-05
4.00543e-05
4.00542e-05
4.00542e-05
4.00542e-05
4.00543e-05
4.00543e-05
4.00544e-05
4.00546e-05
4.00547e-05
4.00549e-05
4.00552e-05
4.00555e-05
4.00559e-05
4.00562e-05
4.00566e-05
4.0057e-05
4.00575e-05
4.0058e-05
4.00585e-05
4.0059e-05
4.00596e-05
4.00602e-05
4.00607e-05
4.00612e-05
4.00617e-05
4.00619e-05
4.00625e-05
4.006e-05
4.00598e-05
4.00599e-05
4.00603e-05
4.00608e-05
4.00613e-05
4.00618e-05
4.00624e-05
4.00629e-05
4.00634e-05
4.00639e-05
4.00643e-05
4.00647e-05
4.00651e-05
4.00654e-05
4.00658e-05
4.00661e-05
4.00664e-05
4.00667e-05
4.0067e-05
4.00673e-05
4.00676e-05
4.00679e-05
4.00681e-05
4.00684e-05
4.00687e-05
4.00689e-05
4.00693e-05
4.00697e-05
4.00701e-05
4.00707e-05
4.00714e-05
4.00723e-05
4.00734e-05
4.00748e-05
4.00763e-05
4.00792e-05
4.00801e-05
4.00869e-05
4.00601e-05
4.00602e-05
4.00595e-05
4.00581e-05
4.00573e-05
4.00567e-05
4.0056e-05
4.00553e-05
4.00548e-05
4.00545e-05
4.00542e-05
4.0054e-05
4.00539e-05
4.00538e-05
4.00538e-05
4.00538e-05
4.00539e-05
4.00539e-05
4.0054e-05
4.00541e-05
4.00543e-05
4.00545e-05
4.00547e-05
4.0055e-05
4.00554e-05
4.00557e-05
4.00561e-05
4.00565e-05
4.00569e-05
4.00574e-05
4.00579e-05
4.00584e-05