/*--------------------------------*- C++ -*----------------------------------*\
| =========                 |                                                 |
| \\      /  F ield         | OpenFOAM: The Open Source CFD Toolbox           |
|  \\    /   O peration     | Version:  2312                                  |
|   \\  /    A nd           | Website:  www.openfoam.com                      |
|    \\/     M anipulation  |                                                 |
\*---------------------------------------------------------------------------*/
FoamFile
{
    version     2.0;
    format      ascii;
    arch        "LSB;label=32;scalar=64";
    class       volScalarField;
    location    "250";
    object      p;
}
// * * * * * * * * * * * * * * * * * * * * * * * * * * * * * * * * * * * * * //

dimensions      [0 2 -2 0 0 0 0];

internalField   nonuniform List<scalar> 
10720
(
-62.4651
-133.768
-217.633
-300.283
-376.651
-454.446
-523.465
-581.41
-631.745
-671.129
-701.112
-723.193
-738.499
-747.755
-751.139
-748.002
-739.253
-723.841
-703.192
-677.364
-649.71
-623.271
-600.622
-573.629
-533.37
-482.284
-429.916
-384.324
-345.082
-308.172
-271.685
-235.528
-199.743
-163.963
-127.783
-90.1732
-51.6559
-6.99351
26.0976
8.92101
73.9815
143.343
208.103
263.447
305.391
330.159
338.462
336.076
323.188
302.171
278.634
255.093
232.313
210.933
190.821
172.033
154.136
136.861
119.717
102.652
85.357
67.9234
50.7635
35.7449
23.9083
14.193
6.31095
0.447127
-3.43314
-5.578
-6.13561
-5.18851
-2.74285
1.21027
7.02508
15.2767
29.2098
52.9203
43.074
-11.0947
-71.7805
-136.231
-202.46
-270.245
-336.032
-397.743
-454.694
-505.128
-548.836
-585.825
-616.001
-639.362
-655.726
-664.791
-667.309
-663.165
-653.409
-638.585
-621.334
-604.007
-587.692
-565.25
-528.484
-479.435
-428.3
-383.248
-344.195
-307.364
-270.907
-234.787
-199.075
-163.39
-127.317
-89.8043
-51.3664
-6.68883
25.789
91.8183
138.284
184.633
229.342
268.746
300.231
320.659
329.367
327.954
317.278
300.105
279.914
258.656
237.273
216.471
196.499
177.486
159.251
141.597
124.196
106.947
89.6445
72.3715
55.5524
40.6599
28.6209
18.7528
10.6414
4.25065
-0.319176
-3.0809
-4.12898
-3.56679
-1.42701
2.28934
7.92724
16.046
29.9005
52.6791
56.8669
8.19727
-46.6016
-107.104
-169.831
-234.124
-298.415
-360.045
-417.43
-469.572
-515.22
-553.819
-585.063
-609.145
-626.299
-636.942
-641.104
-638.846
-630.815
-617.732
-601.454
-584.004
-566.543
-544.626
-511.43
-467.326
-420.436
-377.912
-340.269
-304.465
-268.856
-233.384
-198.094
-162.662
-126.757
-89.3782
-51.0457
-6.43975
25.9097
100.787
143.457
185.899
226.084
260.8
288.428
306.862
315.793
315.964
308.038
294.094
276.485
256.992
236.784
216.671
197.089
178.239
160.085
142.484
125.195
108.083
91.0075
74.0324
57.5398
42.6921
30.393
20.2712
11.9721
5.4816
0.887245
-1.87436
-2.96098
-2.49041
-0.476798
3.1108
8.63519
16.6657
30.3856
52.2812
79.4946
38.6948
-7.91262
-59.166
-112.975
-169.271
-226.388
-282.567
-336.483
-386.979
-432.935
-473.621
-508.573
-537.641
-560.7
-577.875
-588.714
-593.174
-591.567
-584.507
-573.276
-559.419
-543.769
-523.477
-493.622
-454.154
-411.282
-371.209
-334.982
-300.291
-265.67
-231.024
-196.408
-161.516
-126.003
-88.8966
-50.7461
-6.34092
26.1117
116.04
151.138
186.344
220.31
250.042
274.276
291.197
300.322
301.896
296.383
285.379
270.625
253.585
235.357
216.73
198.189
180.008
162.272
144.925
127.823
110.865
93.9768
77.2291
60.9814
46.1927
33.7131
23.3751
14.8555
8.11082
3.20267
0.0750382
-1.37642
-1.22745
0.527286
3.92284
9.31138
17.243
30.7896
51.8351
85.6322
49.3059
7.61335
-38.5692
-87.1882
-138.655
-191.595
-244.397
-296.051
-345.398
-391.292
-432.925
-469.616
-500.869
-526.382
-545.845
-559.009
-565.879
-566.691
-562.066
-553.019
-540.834
-526.156
-506.957
-479.431
-443.229
-403.237
-364.949
-329.771
-295.956
-262.175
-228.285
-194.326
-160.002
-124.98
-88.2949
-50.4537
-6.38325
26.1699
118.253
149.413
180.753
210.986
237.469
259.33
275.174
284.419
287.095
283.621
275.15
262.995
248.299
232.023
214.918
197.493
180.083
162.867
145.879
129.061
112.358
95.7392
79.2898
63.3414
48.6857
36.0962
25.5646
16.834
9.86588
4.728
1.39385
-0.222102
-0.201644
1.44502
4.74616
10.0478
17.8873
31.2244
51.3801
89.4346
57.273
20.1665
-20.9041
-64.154
-110.284
-158.011
-206.056
-253.679
-299.822
-343.518
-383.996
-420.521
-452.495
-479.492
-501.134
-517.304
-527.804
-532.64
-532.174
-527.08
-518.249
-506.084
-489.121
-464.456
-431.668
-394.71
-358.457
-324.536
-291.672
-258.709
-225.523
-192.183
-158.411
-123.876
-87.6406
-50.1902
-6.59662
26.0486
118.317
145.803
173.648
200.709
224.543
244.506
259.466
268.744
272.249
270.395
264.027
254.16
241.687
227.408
211.997
195.935
179.574
163.142
146.743
130.389
114.073
97.8097
81.701
66.0617
51.567
38.9199
28.2327
19.3256
12.1651
6.81549
3.26274
1.42354
1.22104
2.652
5.75864
10.8919
18.5762
31.644
50.8855
89.3623
60.3361
26.7586
-10.4398
-49.5348
-91.4601
-135.079
-179.27
-223.539
-266.948
-308.656
-347.98
-384.168
-416.574
-444.68
-468.033
-486.225
-498.992
-506.182
-508.075
-505.211
-498.294
-487.643
-472.257
-449.962
-420.258
-386.203
-351.99
-319.361
-287.467
-255.331
-222.835
-190.067
-156.802
-122.757
-87.0079
-50.019
-7.01815
25.7213
115.456
140.209
165.413
190.009
211.755
230.196
244.403
253.633
257.75
257.164
252.518
244.607
234.133
221.743
208.012
193.367
178.147
162.609
146.902
131.099
115.241
99.386
83.6538
68.3464
54.0496
41.4021
30.6004
21.54
14.1981
8.63847
4.86154
2.80251
2.39639
3.64878
6.60641
11.6138
19.1724
31.9662
50.3164
87.6892
61.3417
30.7995
-3.00616
-38.4397
-76.5597
-116.319
-156.742
-197.505
-237.809
-276.929
-314.292
-349.209
-381.042
-409.234
-433.274
-452.699
-467.27
-476.785
-481.307
-481.134
-476.696
-468.153
-454.779
-434.982
-408.299
-377.105
-344.997
-313.767
-282.941
-251.723
-220.002
-187.876
-155.152
-121.597
-86.3572
-49.9206
-7.63102
25.1364
111.41
133.864
156.855
179.401
199.412
216.59
230.121
239.231
243.797
244.19
240.932
234.665
225.947
215.294
203.187
189.982
175.989
161.465
146.583
131.455
116.164
100.801
85.5057
70.569
56.5156
43.9284
33.0611
23.8813
16.3845
10.6366
6.65404
4.38791
3.78135
4.84376
7.62806
12.474
19.8622
32.3144
49.7453
84.7991
60.6734
32.674
1.70583
-30.6519
-65.5219
-101.958
-139.079
-176.706
-214.141
-250.781
-286.162
-319.662
-350.685
-378.682
-403.116
-423.492
-439.443
-450.683
-457.106
-458.876
-456.287
-449.43
-437.788
-420.199
-396.243
-367.731
-337.697
-307.906
-278.188
-247.922
-217.015
-185.57
-153.431
-120.395
-85.6722
-49.8331
-8.34003
24.2763
106.551
127.11
148.263
169.091
187.637
203.746
216.659
225.604
230.483
231.63
229.485
224.583
217.379
208.286
197.693
185.891
173.147
159.696
145.716
131.344
116.694
101.884
87.0692
72.5356
58.7618
46.2848
35.3952
26.1257
18.4944
12.5722
8.39021
5.91671
5.10677
5.97769
8.58928
13.2744
20.4883
32.5807
49.1145
81.256
59.0376
33.2332
4.72795
-24.9605
-56.98
-90.4504
-124.577
-159.282
-193.953
-228.096
-261.34
-293.135
-322.96
-350.289
-374.582
-395.332
-412.13
-424.671
-432.744
-436.35
-435.618
-430.538
-420.712
-405.295
-383.931
-358.004
-330.05
-301.756
-273.196
-243.922
-213.863
-183.135
-151.616
-119.136
-84.9572
-49.7286
-9.08869
23.1929
101.324
120.266
139.849
159.204
176.493
191.667
204.013
212.759
217.844
219.568
218.312
214.534
208.62
200.901
191.694
181.226
169.716
157.368
144.35
130.806
116.87
102.678
88.3976
74.3092
60.8592
48.5475
37.6871
28.3657
20.6289
14.5548
10.1893
7.51935
6.51156
7.18964
9.62078
14.1289
21.1425
32.8278
48.4534
77.327
56.7548
32.8523
6.48308
-20.8847
-50.4119
-81.2718
-112.741
-144.8
-176.921
-208.699
-239.851
-269.894
-298.375
-324.819
-348.711
-369.545
-386.887
-400.374
-409.718
-414.778
-415.581
-412.059
-403.897
-390.478
-371.504
-348.017
-322.105
-295.338
-267.976
-239.729
-210.553
-180.575
-149.709
-117.819
-84.2204
-49.6035
-9.88774
21.9512
95.9398
113.493
131.718
149.796
165.989
180.334
192.148
200.677
205.883
208.044
207.494
204.642
199.817
193.296
185.335
176.107
165.785
154.537
142.509
129.841
116.673
103.152
89.4516
75.8457
62.7592
50.6616
39.8775
30.5408
22.7253
16.5196
11.9841
9.12431
7.92107
8.40545
10.6527
14.9761
21.775
33.0267
47.7567
73.2156
54.0866
31.8555
7.365
-17.9655
-45.2907
-73.8276
-102.909
-132.567
-162.331
-191.872
-220.978
-249.234
-276.259
-301.624
-324.852
-345.46
-363.002
-377.088
-387.402
-393.678
-395.849
-393.789
-387.223
-375.693
-358.952
-337.774
-313.866
-288.653
-262.529
-235.344
-207.088
-177.896
-147.715
-116.449
-83.4703
-49.4763
-10.7524
20.5761
90.5572
106.897
123.933
140.883
156.112
169.708
181.02
189.323
194.584
197.071
197.083
194.988
191.079
185.592
178.737
170.645
161.445
151.268
140.234
128.471
116.113
103.309
90.2312
77.1473
64.465
52.6302
41.9718
32.6598
24.7971
18.4845
13.7972
10.7594
9.36711
9.6582
11.7163
15.8424
22.4054
33.19
47.0295
69.0516
51.1958
30.4459
7.61955
-15.9091
-41.2787
-67.7456
-94.6854
-122.17
-149.781
-177.24
-204.399
-230.903
-256.433
-280.618
-303.025
-323.2
-340.706
-355.125
-366.13
-373.363
-376.678
-375.907
-370.803
-361.015
-346.333
-327.323
-305.361
-281.713
-256.858
-230.767
-203.464
-175.093
-145.634
-115.025
-82.7064
-49.368
-11.6825
19.0738
85.2657
100.541
116.518
132.464
146.834
159.748
170.585
178.653
183.922
186.647
187.104
185.627
182.486
177.885
172.003
164.936
156.778
147.626
137.573
126.723
115.2
103.146
90.7266
78.2009
65.9612
54.434
43.948
34.7009
26.8228
20.4285
15.6081
12.4041
10.8288
10.9276
12.7927
16.7118
23.0217
33.3133
46.2742
64.921
48.1997
28.774
7.43444
-14.4871
-38.109
-62.7219
-87.7339
-113.251
-138.892
-164.422
-189.741
-214.549
-238.583
-261.529
-283
-302.572
-319.83
-334.347
-345.793
-353.764
-358.034
-358.403
-354.639
-346.458
-333.676
-316.698
-296.614
-274.53
-250.969
-225.999
-199.68
-172.165
-143.463
-113.546
-81.9252
-49.2855
-12.6755
17.4589
80.1285
94.4527
109.486
124.526
138.123
150.409
160.797
168.627
173.864
176.761
177.567
176.595
174.095
170.252
165.218
159.068
151.866
143.68
134.575
124.631
113.953
102.67
90.9384
79.0031
67.2415
56.0644
45.7965
36.6553
28.7955
22.3471
17.4146
14.0589
12.3091
12.2179
13.8866
17.5878
23.6262
33.4006
45.4948
60.8799
45.179
26.9446
6.94324
-13.5371
-35.5893
-58.5309
-81.8056
-105.536
-129.374
-153.122
-176.719
-199.913
-222.487
-244.174
-264.637
-283.489
-300.342
-314.777
-326.456
-334.963
-340
-341.349
-338.785
-332.068
-321.027
-305.939
-287.655
-267.12
-244.868
-221.043
-195.737
-169.11
-141.2
-112.012
-81.1254
-49.2242
-13.7291
15.7436
75.1825
88.6516
102.831
117.052
129.945
141.65
151.612
159.201
164.38
167.391
168.472
167.91
165.946
162.748
158.452
153.115
146.781
139.493
131.291
122.229
112.392
101.893
90.8698
79.5509
68.299
57.5108
47.5038
38.5091
30.7019
24.228
19.2059
15.7142
13.7993
13.5216
14.9911
18.4647
24.2147
33.452
44.6952
56.9652
42.1896
25.0341
6.24483
-12.9356
-33.5674
-54.9967
-76.6977
-98.8026
-120.992
-143.101
-165.095
-186.759
-207.921
-228.358
-247.775
-265.827
-282.154
-296.356
-308.089
-316.953
-322.594
-324.772
-323.269
-317.873
-308.421
-295.084
-278.515
-259.503
-238.566
-215.904
-191.637
-165.93
-138.845
-110.422
-80.3067
-49.181
-14.8366
13.9342
70.4486
83.1441
96.5467
110.02
122.266
133.431
142.989
150.337
155.436
158.52
159.814
159.585
158.067
155.417
151.759
147.139
141.586
135.124
127.769
119.556
110.546
100.83
90.5265
79.8449
69.1309
58.7661
49.06
40.2511
32.5315
26.0617
20.9741
17.364
15.2949
14.8354
16.1038
19.3408
24.7862
33.4701
43.8792
53.202
39.2683
23.0957
5.41164
-12.5896
-31.9302
-51.987
-72.2559
-92.8791
-113.562
-134.161
-154.663
-174.889
-194.701
-213.916
-232.278
-249.48
-265.195
-279.047
-290.69
-299.755
-305.846
-308.708
-308.128
-303.912
-295.898
-284.175
-269.227
-251.701
-232.077
-210.589
-187.381
-162.623
-136.398
-108.775
-79.4687
-49.1536
-15.9897
12.037
65.9375
77.9294
90.6203
103.405
115.056
125.716
134.889
141.998
146.999
150.124
151.579
151.621
150.475
148.29
145.183
141.193
136.338
130.627
124.062
116.655
108.445
99.5007
89.9205
79.8896
69.7352
59.8243
50.4555
41.87
34.2728
27.8373
22.7093
18.9998
16.789
16.1538
17.2198
20.2122
25.3385
33.4569
43.0508
49.6043
36.441
21.1716
4.49659
-12.4263
-30.5908
-49.3934
-68.357
-87.6256
-106.927
-126.134
-145.255
-164.136
-182.668
-200.701
-218.015
-234.342
-249.384
-262.794
-274.233
-283.361
-289.767
-293.18
-293.389
-290.216
-283.497
-273.251
-259.828
-243.739
-225.416
-205.109
-182.977
-159.193
-133.859
-107.07
-78.6099
-49.1411
-17.1796
10.0632
61.6531
73.0001
85.0355
97.1853
108.283
118.469
127.276
134.148
139.041
142.178
143.756
144.017
143.18
141.391
138.757
135.317
131.083
126.053
120.214
113.563
106.12
97.9288
89.0662
79.6924
70.1141
60.6821
51.6829
43.3561
35.915
29.5445
24.4021
20.6135
18.2746
17.4712
18.335
21.0757
25.8699
33.4151
42.215
46.179
33.7257
19.2868
3.54213
-12.3943
-29.4788
-47.1334
-64.9001
-82.929
-100.961
-118.887
-136.728
-154.353
-171.676
-188.577
-204.865
-220.309
-234.642
-247.544
-258.692
-267.767
-274.369
-278.209
-279.08
-276.816
-271.252
-262.352
-250.351
-235.644
-218.601
-199.473
-178.429
-155.643
-131.23
-105.309
-77.7294
-49.1418
-18.3976
8.02487
57.595
68.3474
79.7764
91.3376
101.918
111.658
120.116
126.756
131.531
134.659
136.327
136.765
136.186
134.732
132.507
129.547
125.862
121.443
116.269
110.321
103.603
96.1383
87.9795
79.263
70.272
61.3388
52.7367
44.7006
37.4482
31.1728
26.0427
22.1962
19.7441
18.7814
19.4441
21.9276
26.3789
33.347
41.3763
42.9299
31.1332
17.4622
2.57623
-12.4508
-28.5426
-45.1401
-61.809
-78.6979
-95.5627
-112.306
-128.961
-145.413
-161.599
-177.421
-192.718
-207.287
-220.891
-233.24
-244.028
-252.957
-259.652
-263.807
-265.221
-263.74
-259.198
-251.516
-240.834
-227.443
-211.652
-193.695
-173.746
-151.976
-128.511
-103.489
-76.825
-49.1526
-19.635
5.93494
53.7589
63.9614
74.8271
85.8402
95.9357
105.253
113.379
119.791
124.443
127.546
129.279
129.858
129.494
128.324
126.451
123.909
120.708
116.835
112.264
106.966
100.928
94.1562
86.6814
78.615
70.2153
61.7951
53.6131
45.8964
38.863
32.7124
27.6211
23.7389
21.1897
20.0779
20.5419
22.7644
26.864
33.2554
40.5391
39.8561
28.6693
15.7118
1.62221
-12.565
-27.7392
-43.3624
-59.0192
-74.8575
-90.6458
-106.298
-121.855
-137.217
-152.336
-167.135
-181.479
-195.19
-208.06
-219.825
-230.205
-238.912
-245.61
-249.981
-251.83
-251.013
-247.368
-240.781
-231.314
-219.169
-204.59
-187.791
-168.938
-148.198
-125.705
-101.613
-75.8947
-49.1694
-20.8822
3.80777
50.1402
59.8307
70.171
80.6712
90.3112
99.2296
107.037
113.227
117.752
120.817
122.592
123.286
123.1
122.172
120.601
118.423
115.648
112.263
108.236
103.532
98.126
92.0098
85.1935
77.7634
69.953
62.0544
54.3104
46.9377
40.1515
34.1537
29.1276
25.2324
22.6032
21.3535
21.6229
23.582
27.3238
33.1432
39.7079
36.9558
26.3373
14.0439
0.695859
-12.712
-27.0361
-41.7572
-56.4791
-71.3451
-86.1395
-100.783
-115.322
-129.67
-143.791
-157.626
-171.058
-183.938
-196.078
-207.243
-217.178
-225.606
-232.232
-236.733
-238.918
-238.657
-235.791
-230.179
-221.825
-210.85
-197.441
-181.778
-164.017
-144.316
-122.815
-99.6802
-74.9364
-49.1875
-22.1293
1.65825
46.7311
55.9438
65.7919
75.8106
85.0216
93.5626
101.066
107.038
111.434
114.452
116.253
117.036
117
116.278
114.966
113.106
110.704
107.751
104.213
100.049
95.228
89.7263
83.5374
76.7246
69.4964
62.1229
54.8294
47.821
41.3065
35.4881
30.5529
26.6673
23.976
22.6008
22.6812
24.3768
27.7571
33.0129
38.8873
34.225
24.137
12.465
-0.190673
-12.8751
-26.4075
-40.2916
-54.1465
-68.1136
-81.9863
-95.6952
-109.29
-122.694
-135.882
-148.811
-161.378
-173.455
-184.88
-195.442
-204.906
-213.014
-219.505
-224.06
-226.495
-226.689
-224.491
-219.745
-212.402
-202.521
-190.228
-175.674
-158.995
-140.339
-119.846
-97.6914
-73.9476
-49.2016
-23.3669
-0.499537
43.5231
52.2898
61.6757
71.2406
80.0469
88.2295
95.4406
101.202
105.467
108.431
110.244
111.098
111.186
110.639
109.552
107.966
105.894
103.323
100.221
96.5474
92.2622
87.3324
81.7366
75.5177
68.8587
62.0078
55.1727
48.5439
42.3226
36.7079
31.8879
28.0344
25.2997
23.8123
23.7108
25.1447
28.1629
32.8671
38.0814
31.6584
22.0677
10.978
-1.02946
-13.0383
-25.8334
-38.9382
-51.9878
-65.1197
-78.1393
-90.9814
-103.7
-116.225
-128.541
-140.617
-152.365
-163.676
-174.405
-184.366
-193.347
-201.105
-207.409
-211.955
-214.564
-215.123
-213.493
-209.507
-203.079
-194.211
-182.98
-169.5
-153.886
-136.275
-116.802
-95.6477
-72.9259
-49.2051
-24.5843
-2.65006
40.5086
48.856
57.8075
66.9445
75.3677
83.2088
90.1398
95.6963
99.832
102.735
104.551
105.459
105.651
105.253
104.359
103.013
101.228
98.9952
96.2836
93.051
89.2543
84.8534
79.8144
74.1616
68.0546
61.7188
55.344
49.1065
43.196
37.8061
33.1245
29.3251
26.5653
24.9801
24.7054
25.8817
28.54
32.7082
37.2942
29.2498
20.1269
9.58425
-1.81509
-13.1913
-25.2977
-37.6748
-49.9742
-62.3299
-74.5561
-86.593
-98.4957
-110.203
-121.707
-132.983
-143.958
-154.538
-164.597
-173.967
-182.458
-189.847
-195.925
-200.41
-203.125
-203.97
-202.817
-199.494
-193.885
-185.951
-175.723
-163.277
-148.708
-132.136
-113.689
-93.5511
-71.8682
-49.1919
-25.7712
-4.77841
37.6787
45.6321
54.1732
62.9051
70.9649
78.481
85.1439
90.5022
94.5094
97.348
99.1563
100.107
100.385
100.114
99.3877
98.2504
96.7177
94.7829
92.4177
89.581
86.2279
82.3126
77.7924
72.6758
67.0993
61.267
55.3503
49.51
43.9239
38.7777
34.2551
30.5306
27.7647
26.0965
25.6589
26.5838
28.8876
32.5384
36.5292
26.9933
18.3111
8.28353
-2.54413
-13.3272
-24.7882
-36.4851
-48.0842
-59.7162
-71.2034
-82.4918
-93.6355
-104.581
-115.326
-125.853
-136.1
-145.986
-155.401
-164.197
-172.2
-179.209
-185.031
-189.412
-192.178
-193.238
-192.478
-189.727
-184.849
-177.771
-168.482
-157.028
-143.477
-127.932
-110.514
-91.4022
-70.7727
-49.154
-26.9169
-6.86935
35.025
42.6065
50.7595
59.1071
66.8222
74.0286
80.4337
85.6006
89.4812
92.2528
94.0472
95.0293
95.3787
95.2174
94.6355
93.6797
92.3679
90.6959
88.6384
86.1559
83.2035
79.7317
75.6918
71.0787
66.0088
60.6643
55.1989
49.7578
44.5057
39.618
35.2732
31.6434
28.8897
27.1539
26.565
27.247
29.2044
32.3595
35.7892
24.8825
16.6159
7.07488
-3.21438
-13.4398
-24.2951
-35.3545
-46.2988
-57.2548
-68.0526
-78.6436
-89.0808
-99.317
-109.354
-119.179
-128.741
-137.971
-146.772
-155.01
-162.535
-169.158
-174.703
-178.945
-181.713
-182.928
-182.489
-180.23
-175.999
-169.698
-161.286
-150.775
-138.212
-123.676
-107.283
-89.2051
-69.636
-49.0847
-28.0126
-8.90768
32.5386
39.7687
47.5542
55.5375
62.9241
69.8355
75.9931
80.9744
84.7309
87.4339
89.209
90.2138
90.6226
90.5547
90.0984
89.3012
88.1831
86.7427
84.9575
82.791
80.1989
77.1307
73.5329
69.3903
64.7999
59.9239
54.8988
49.8548
44.942
40.3247
36.1733
32.6562
29.9326
28.1448
27.4175
27.8673
29.4897
32.1729
35.0769
22.9107
15.0373
5.95554
-3.8247
-13.5257
-23.811
-34.2718
-44.6034
-54.9266
-65.0809
-75.021
-84.8002
-94.3741
-103.75
-112.919
-121.838
-130.448
-138.664
-146.368
-153.423
-159.661
-164.916
-168.993
-171.725
-173.043
-172.86
-171.018
-167.358
-161.76
-154.16
-144.542
-132.929
-119.384
-104.005
-86.9608
-68.4564
-48.9775
-29.0472
-10.8796
30.2109
37.1084
44.5457
52.1821
59.256
65.886
71.8058
76.6077
80.2427
82.8763
84.6283
85.6487
86.1072
86.1193
85.7719
85.1131
84.1649
82.9283
81.3841
79.4986
77.2295
74.527
71.3343
67.628
63.4885
59.0592
54.4603
49.8069
45.2349
40.8962
36.9516
33.5628
30.8861
29.0624
28.2108
28.4411
29.7421
31.9799
34.3938
21.0711
13.5701
4.9233
-4.37565
-13.5821
-23.3309
-33.2285
-42.9848
-52.7154
-62.2679
-71.5995
-80.7642
-89.7211
-98.4789
-107.035
-115.351
-123.377
-131.039
-138.231
-144.831
-150.688
-155.647
-159.538
-162.204
-163.58
-163.598
-162.107
-158.944
-153.98
-147.129
-138.352
-127.65
-115.067
-100.69
-84.6735
-67.2314
-48.823
-30.0123
-12.7717
28.034
34.616
41.7224
49.0285
55.8043
62.1652
67.8571
72.4855
76.002
78.5662
80.2918
81.3222
81.8218
81.9029
81.6498
81.1121
80.3128
79.2556
77.9244
76.2886
74.3087
71.9357
69.1121
65.8085
62.0904
58.0837
53.8939
49.6217
45.3884
41.3327
37.6048
34.3585
31.7442
29.9001
28.9391
28.9645
29.9609
31.7809
33.7412
19.3573
12.2093
3.97511
-4.86834
-13.6075
-22.8498
-32.2173
-41.4325
-50.6072
-59.5957
-68.3587
-76.9489
-85.3294
-93.5107
-101.493
-109.244
-116.721
-123.858
-130.564
-136.726
-142.209
-146.87
-150.563
-153.135
-154.536
-154.706
-153.508
-150.778
-146.381
-140.216
-132.226
-122.392
-110.741
-97.3445
-82.3469
-65.9592
-48.6161
-30.8981
-14.5715
25.9998
32.2819
39.0739
46.0654
52.5564
58.6599
64.1331
68.594
71.9951
74.49
76.1871
77.2229
77.7559
77.8967
77.7261
77.2944
76.6261
75.7264
74.5831
73.1688
71.4467
69.3698
66.8814
63.9474
60.6207
57.0115
53.2113
49.3074
45.4071
41.6357
38.1317
35.0391
32.5014
30.6519
29.5974
29.4341
30.1445
31.5762
33.1193
17.7627
10.9501
3.10733
-5.30406
-13.6015
-22.3653
-31.2328
-39.939
-48.5913
-57.0512
-65.2817
-73.3347
-81.1766
-88.8188
-96.2645
-103.487
-110.448
-117.091
-123.334
-129.076
-134.196
-138.562
-142.047
-144.508
-145.903
-146.185
-145.228
-142.873
-138.981
-133.442
-126.185
-117.175
-106.421
-93.981
-79.9848
-64.639
-48.3499
-31.6972
-16.2684
24.1007
30.0978
36.5901
43.2816
49.5005
55.3576
60.6204
64.9204
68.2094
70.6357
72.3022
73.3394
73.9005
74.0922
73.9936
73.6547
73.1014
72.3406
71.363
70.1448
68.6522
66.8407
64.6552
62.0587
59.0937
55.8559
52.424
48.8731
45.2971
41.808
38.5317
35.602
33.1534
31.3131
30.1811
29.8466
30.2919
31.3657
32.5278
16.2811
9.78712
2.31649
-5.68489
-13.5641
-21.8754
-30.2708
-38.4977
-46.6589
-54.6223
-62.3539
-69.904
-77.2419
-84.3801
-91.3245
-98.0514
-104.529
-110.707
-116.511
-121.853
-126.623
-130.699
-133.971
-136.308
-137.674
-138.034
-137.273
-135.241
-131.797
-126.828
-120.25
-112.017
-102.121
-90.6082
-77.5922
-63.2704
-48.0185
-32.4023
-17.8527
22.329
28.0551
34.2617
40.6664
46.6255
52.2465
57.3073
61.4521
64.632
66.9909
68.626
69.6616
70.2454
70.4809
70.4451
70.1878
69.7353
69.0969
68.2655
67.2205
65.9316
64.3573
62.4448
60.1556
57.5228
54.6296
51.5436
48.3283
45.0654
41.8536
38.8064
36.0459
33.6971
31.8793
30.6863
30.1991
30.4017
31.1486
31.9655
14.9062
8.71541
1.59885
-6.01305
-13.4958
-21.3786
-29.3277
-37.1023
-44.8011
-52.2978
-59.5619
-66.6409
-73.5075
-80.1751
-86.6502
-92.9137
-98.9379
-104.678
-110.069
-115.031
-119.464
-123.258
-126.316
-128.52
-129.839
-130.249
-129.647
-127.89
-124.843
-120.389
-114.439
-106.934
-97.8561
-87.2366
-75.1743
-61.8526
-47.6174
-33.0069
-19.3151
20.6778
26.1457
32.0796
38.2103
43.9207
49.3157
54.1826
58.1772
61.252
63.5446
65.1473
66.1784
66.7807
67.0542
67.0732
66.8873
66.5237
65.9926
65.2901
64.3983
63.29
61.9272
60.2596
58.2487
55.9199
53.3448
50.5814
47.6831
44.7196
41.7776
38.9578
36.3706
34.1304
32.3476
31.1095
30.489
30.4724
30.9239
31.4308
13.632
7.73003
0.950573
-6.29096
-13.3974
-20.8744
-28.4012
-35.749
-43.0116
-50.0697
-56.8944
-63.532
-69.9572
-76.1845
-82.2215
-88.0515
-93.651
-98.981
-103.982
-108.584
-112.696
-116.218
-119.064
-121.129
-122.388
-122.825
-122.349
-120.828
-118.13
-114.141
-108.767
-101.943
-93.6399
-83.8767
-72.7367
-60.3876
-47.1423
-33.5056
-20.6492
19.1403
24.3619
30.0355
35.9042
41.3765
46.5548
51.235
55.0853
58.058
60.2855
61.8553
62.8801
63.4969
63.8031
63.8701
63.7471
63.4614
63.0251
62.4359
61.6791
60.7307
59.5558
58.1075
56.3478
54.2958
52.0131
49.5486
46.9473
44.2682
41.586
38.9895
36.5773
34.4525
32.716
31.4482
30.714
30.5026
30.6902
30.9212
12.4529
6.82605
0.367835
-6.52132
-13.2706
-20.3626
-27.4898
-34.4341
-41.2857
-47.9307
-54.3427
-60.5664
-66.5786
-72.3937
-78.0206
-83.4453
-88.6474
-93.5924
-98.2275
-102.489
-106.296
-109.557
-112.196
-114.12
-115.309
-115.755
-115.379
-114.058
-111.667
-108.096
-103.25
-97.0591
-89.486
-80.5388
-70.2855
-58.8762
-46.5914
-33.8949
-21.8491
17.7098
22.6963
28.1212
33.7391
38.9834
43.9538
48.4548
52.166
55.0399
57.2034
58.7404
59.7567
60.3853
60.7196
60.8286
60.7605
60.5434
60.1904
59.7008
59.063
58.2557
57.2476
55.9951
54.4612
52.6602
50.6446
48.4558
46.1308
43.7195
41.2856
38.9063
36.6684
34.6639
32.9836
31.7008
30.8726
30.4911
30.4457
30.4338
11.3631
5.99882
-0.153222
-6.70682
-13.1167
-19.8433
-26.5917
-33.1546
-39.6186
-45.8744
-51.8985
-57.7337
-63.3586
-68.7883
-74.0321
-79.0779
-83.9082
-88.4928
-92.7844
-96.7256
-100.243
-103.256
-105.694
-107.477
-108.591
-109.032
-108.733
-107.581
-105.46
-102.263
-97.8995
-92.295
-85.4065
-77.2326
-67.8272
-57.3211
-45.9631
-34.1717
-22.911
16.3801
21.1422
26.3291
31.7072
36.733
41.5038
45.8322
49.4092
52.1876
54.289
55.7929
56.7995
57.4368
57.7949
57.9405
57.9208
57.7642
57.4841
57.0822
56.5491
55.8662
55.0056
53.9274
52.5962
51.0217
49.249
47.3128
45.2435
43.0826
40.8839
38.7136
36.6474
34.7662
33.1505
31.8664
30.9635
30.4365
30.1885
29.9654
10.3574
5.2437
-0.616351
-6.85034
-12.9374
-19.3172
-25.7066
-31.9088
-38.0063
-43.8956
-49.5546
-55.0253
-60.2872
-65.356
-70.2414
-74.9333
-79.4163
-83.6638
-87.6335
-91.2743
-94.5196
-97.2956
-99.5407
-101.186
-102.22
-102.646
-102.406
-101.397
-99.5127
-96.6517
-92.726
-87.6621
-81.4125
-73.9678
-65.3681
-55.7255
-45.257
-34.3348
-23.8323
15.1453
19.6929
24.6522
29.8004
34.6167
39.1958
43.3584
46.806
49.4919
51.5325
53.0033
53.9991
54.6428
55.0214
55.1987
55.2214
55.1177
54.9018
54.5768
54.1355
53.5622
52.832
51.9084
50.7583
49.3875
47.8347
46.1289
44.2947
42.3662
40.3885
38.4178
36.519
34.7622
33.2181
31.9451
30.9861
30.3377
29.9164
29.5122
9.4307
4.55628
-1.0252
-6.95445
-12.7346
-18.7848
-24.8339
-30.6946
-36.4457
-41.9894
-47.3053
-52.4334
-57.3552
-62.0861
-66.6366
-70.9975
-75.1563
-79.0889
-82.7577
-86.1164
-89.1059
-91.6587
-93.7199
-95.2315
-96.1841
-96.5877
-96.3915
-95.5039
-93.8261
-91.2655
-87.7375
-83.1704
-77.5144
-70.7531
-62.915
-54.0936
-44.4744
-34.3839
-24.6118
13.9995
18.3422
23.0834
28.0114
32.6269
37.0219
41.0247
44.3477
46.9439
48.9253
50.363
51.3468
51.9949
52.3906
52.5956
52.6555
52.5981
52.4384
52.1808
51.8201
51.3431
50.7276
49.9409
48.952
47.764
46.4095
44.9126
43.2933
41.5793
39.8077
38.0259
36.2885
34.6559
33.1886
31.938
30.9403
30.1937
29.6273
29.0705
8.57808
3.93207
-1.38331
-7.02202
-12.5103
-18.247
-23.9732
-29.5105
-34.9346
-40.1523
-45.1452
-49.9514
-54.5542
-58.9692
-63.2063
-67.2582
-71.1142
-74.753
-78.1408
-81.2359
-83.9852
-86.328
-88.2153
-89.5978
-90.4701
-90.8458
-90.6819
-89.8968
-88.4004
-86.1079
-82.9398
-78.8278
-73.7207
-67.597
-60.4749
-52.4296
-43.6177
-34.3205
-25.2504
12.9374
17.084
21.6165
26.3332
30.756
34.9742
38.8232
42.0258
44.5354
46.459
47.8638
48.8347
49.485
49.8951
50.124
50.2162
50.1994
50.0889
49.8903
49.6001
49.2074
48.6929
48.0272
47.1814
46.1565
44.9799
43.6718
42.2478
40.7304
39.1498
37.5452
35.9623
34.4519
33.0654
31.8469
30.8267
30.004
29.3189
28.6361
7.79484
3.36713
-1.69426
-7.05583
-12.2661
-17.7049
-23.1245
-28.3556
-33.4704
-38.3807
-43.0691
-47.5731
-51.877
-55.9959
-59.9402
-63.7038
-67.2775
-70.6422
-73.7678
-76.6171
-79.1418
-81.288
-83.0114
-84.2712
-85.0649
-85.4093
-85.2688
-84.5704
-83.2334
-81.1801
-78.3374
-74.6403
-70.0387
-64.5071
-58.0542
-50.739
-42.6905
-34.147
-25.7497
11.9538
15.9129
20.2453
24.7594
28.9973
33.0455
36.7464
39.8328
42.2585
44.1255
45.4976
46.4548
47.1056
47.5275
47.7768
47.8972
47.9158
47.8482
47.701
47.4724
47.1534
46.7274
46.1683
45.4492
44.5694
43.5519
42.4134
41.1661
39.8278
38.423
36.9835
35.5471
34.1558
32.8526
31.6746
30.6465
29.7681
28.9892
28.2053
7.07649
2.85741
-1.96133
-7.05855
-12.0043
-17.1597
-22.2882
-27.2293
-32.0514
-36.6716
-41.0738
-45.2936
-49.3169
-53.1588
-56.8295
-60.3238
-63.6342
-66.7437
-69.6254
-72.2455
-74.561
-76.5234
-78.0936
-79.2372
-79.9553
-80.267
-80.1429
-79.5182
-78.3211
-76.4812
-73.9319
-70.6125
-66.4745
-61.4899
-55.6595
-49.0275
-41.6973
-33.8675
-26.1129
11.0437
14.8233
18.9642
23.2838
27.3441
31.2287
34.7869
37.7611
40.1055
41.9174
43.2569
44.1997
44.8494
45.2807
45.5475
45.692
45.7413
45.7111
45.6087
45.4337
45.1791
44.8304
44.3647
43.7576
43.0065
42.1307
41.1439
40.0555
38.8796
37.6356
36.3489
35.0502
33.7739
32.5551
31.4244
30.4016
29.4861
28.6363
27.7741
6.41871
2.39915
-2.18778
-7.03276
-11.7264
-16.6125
-21.4644
-26.1307
-30.6764
-35.0226
-39.1551
-43.1079
-46.8682
-50.4505
-53.8656
-57.109
-60.1739
-63.0459
-65.7007
-68.1078
-70.2288
-72.02
-73.4474
-74.4823
-75.1286
-75.4072
-75.2942
-74.7324
-73.6583
-72.0088
-69.7237
-66.7471
-63.0328
-58.5512
-53.297
-47.301
-40.6435
-33.4867
-26.3446
10.2026
13.8102
17.7673
21.9006
25.7901
29.5174
32.9381
35.8039
38.0693
39.8273
41.1345
42.062
42.7094
43.1478
43.4292
43.5946
43.6704
43.6726
43.609
43.4805
43.2817
43.0005
42.6167
42.1078
41.4706
40.7204
39.8688
38.9229
37.8934
36.7954
35.6493
34.4793
33.3129
32.1785
31.1005
30.0942
29.1585
28.2586
27.339
5.81754
1.98864
-2.37662
-6.98103
-11.4344
-16.0643
-20.6539
-25.0596
-29.3436
-33.4313
-37.3097
-41.0117
-44.5252
-47.8649
-51.0411
-54.0503
-56.8871
-59.5383
-61.9821
-64.1917
-66.132
-67.7647
-69.0593
-69.9931
-70.5717
-70.8176
-70.7121
-70.2046
-69.2389
-67.7592
-65.7118
-63.0456
-59.717
-55.6962
-50.9727
-45.5657
-39.5354
-33.0109
-26.4502
9.42577
12.8688
16.6497
20.6039
24.3296
27.9054
31.1935
33.9544
36.1432
37.8485
39.1235
40.0351
40.6787
41.1224
41.4159
41.5989
41.6976
41.7275
41.6975
41.6093
41.4589
41.2363
40.9238
40.5011
39.9641
39.3251
38.5933
37.7744
36.8762
35.9104
34.8926
33.842
32.78
31.7288
30.7075
29.7273
28.7862
27.8549
26.8967
5.26905
1.62254
-2.53096
-6.90567
-11.1304
-15.5164
-19.8567
-24.0155
-28.052
-31.8957
-35.5349
-39.0011
-42.2834
-45.3959
-48.3491
-51.14
-53.7643
-56.2104
-58.4588
-60.4851
-62.2584
-63.7444
-64.9164
-65.7565
-66.2721
-66.4868
-66.3858
-65.9253
-65.0556
-63.7276
-61.8936
-59.5077
-56.5292
-52.9287
-48.6918
-43.828
-38.3797
-32.4469
-26.4363
8.70918
11.9945
15.6064
19.3887
22.9567
26.3867
29.5469
32.2064
34.3208
35.9744
37.2175
38.1126
38.7511
39.1981
39.5014
39.6993
39.8174
39.8712
39.8699
39.8163
39.7077
39.5358
39.2854
38.9381
38.4889
37.9477
37.3219
36.6157
35.8347
34.9878
34.0867
33.1461
32.1824
31.2124
30.2505
29.3043
28.3707
27.4243
26.4442
4.76958
1.29754
-2.6536
-6.80904
-10.8159
-14.9698
-19.0735
-22.9982
-26.8006
-30.4141
-33.828
-37.0724
-40.138
-43.0381
-45.7831
-48.3707
-50.7975
-53.0532
-55.1204
-56.9774
-58.5964
-59.947
-61.006
-61.7597
-62.2171
-62.4025
-62.3045
-61.885
-61.1004
-59.9078
-58.2655
-56.1321
-53.4705
-50.252
-46.4594
-42.0941
-37.1836
-31.8022
-26.3101
8.04878
11.183
14.6328
18.25
21.6664
24.9561
27.9927