/*--------------------------------*- C++ -*----------------------------------*\
| =========                 |                                                 |
| \\      /  F ield         | OpenFOAM: The Open Source CFD Toolbox           |
|  \\    /   O peration     | Version:  2312                                  |
|   \\  /    A nd           | Website:  www.openfoam.com                      |
|    \\/     M anipulation  |                                                 |
\*---------------------------------------------------------------------------*/
FoamFile
{
    version     2.0;
    format      ascii;
    arch        "LSB;label=32;scalar=64";
    class       surfaceScalarField;
    location    "250";
    object      phi;
}
// * * * * * * * * * * * * * * * * * * * * * * * * * * * * * * * * * * * * * //

dimensions      [0 3 -1 0 0 0 0];

oriented        oriented;

internalField   nonuniform List<scalar> 
21254
(
-0.23385
0.253447
-0.0195962
0.275443
-0.0219967
0.294378
-0.0189351
0.311289
-0.016911
0.327262
-0.0159726
0.339987
-0.0127253
0.349968
-0.0099807
0.357955
-0.00798683
0.36298
-0.00502534
0.36604
-0.00306021
0.367185
-0.00114505
0.365864
0.00132143
0.362209
0.00365527
0.35604
0.00616881
0.346958
0.00908164
0.334853
0.0121051
0.318946
0.0159073
0.298552
0.0203939
0.27251
0.0260421
0.240072
0.0324373
0.200752
0.0393208
0.157883
0.0428691
0.119469
0.0384137
0.0953294
0.0241396
0.0903578
0.00497139
0.0998791
-0.00952121
0.113853
-0.0139737
0.126342
-0.0124887
0.135399
-0.00905787
0.141018
-0.00561874
0.143765
-0.00274636
0.143794
-2.93282e-05
0.140976
0.00281835
0.135419
0.00555613
0.126853
0.00856688
0.114253
0.0125998
0.0957499
0.0185037
0.0674724
0.0282782
0.0663926
0.00109518
-0.210767
-0.0230835
-0.186829
-0.0239376
-0.157441
-0.0293886
-0.125234
-0.0322066
-0.0913218
-0.0339123
-0.0563783
-0.0349436
-0.0219965
-0.0343818
0.00987572
-0.0318722
0.0388385
-0.0289627
0.0644195
-0.0255811
0.0863757
-0.0219561
0.105071
-0.0186952
0.120795
-0.0157246
0.133893
-0.0130973
0.145081
-0.0111879
0.154682
-0.00960081
0.163172
-0.00849039
0.170783
-0.00761109
0.177824
-0.00704054
0.184413
-0.00658938
0.19072
-0.00630668
0.196728
-0.00600816
0.202362
-0.00563429
0.20697
-0.00460835
0.210373
-0.00340294
0.212896
-0.00252254
0.214594
-0.00169796
0.215696
-0.00110213
0.216342
-0.000646223
0.216525
-0.000182746
0.216029
0.000495582
0.214769
0.00126005
0.212744
0.00202557
0.209991
0.00275224
0.206428
0.00356303
0.20172
0.0047081
0.194902
0.00681787
0.18107
0.013832
0.161162
0.0199081
-0.213226
0.234734
-0.0411037
0.256758
-0.0440208
0.279782
-0.0419589
0.301293
-0.0384224
0.322334
-0.0370136
0.341917
-0.032308
0.359642
-0.0277055
0.375793
-0.0241378
0.390001
-0.0192333
0.402345
-0.0154043
0.413062
-0.0118625
0.422601
-0.00821746
0.431301
-0.00504454
0.439212
-0.00174202
0.446125
0.00216853
0.451602
0.0066281
0.455309
0.0122003
0.456885
0.0188177
0.454981
0.0279465
0.448421
0.0389966
0.434745
0.052997
0.412353
0.065261
0.381078
0.0696885
0.345906
0.0593119
0.313323
0.037554
0.285217
0.0185857
0.261332
0.00991075
0.241782
0.00706148
0.22682
0.00590447
0.215836
0.00536446
0.206992
0.00609829
0.198701
0.00826195
0.190012
0.0115071
0.180168
0.0153999
0.168423
0.0203124
0.153257
0.0277658
0.133496
0.0382656
0.0997809
0.0619939
0.071659
0.0292268
-0.191267
-0.0450435
-0.167767
-0.0474373
-0.140253
-0.0569023
-0.111147
-0.0613123
-0.0802315
-0.0648281
-0.0479019
-0.0672731
-0.0156591
-0.0666247
0.0151655
-0.0626968
0.0433224
-0.0571196
0.0683746
-0.0506333
0.0901548
-0.0437364
0.109041
-0.0375812
0.125488
-0.0321717
0.139719
-0.0273281
0.152183
-0.0236523
0.163183
-0.0206011
0.173013
-0.0183201
0.18198
-0.0165778
0.19034
-0.0154009
0.198205
-0.0144544
0.205738
-0.0138398
0.21301
-0.0132802
0.219953
-0.0125772
0.226109
-0.010764
0.231205
-0.00849866
0.235429
-0.0067475
0.238687
-0.00495566
0.240886
-0.00330092
0.241977
-0.00173759
0.242068
-0.000273351
0.241383
0.00118093
0.240106
0.00253629
0.238258
0.00387426
0.235834
0.00517609
0.232757
0.00663967
0.228731
0.00873393
0.223774
0.011775
0.213423
0.0241833
0.195346
0.0379843
-0.206988
0.228685
-0.0628009
0.250533
-0.065868
0.27412
-0.0655468
0.295682
-0.0599841
0.316175
-0.0575066
0.33577
-0.0519031
0.353168
-0.0451038
0.368762
-0.039731
0.382101
-0.0325726
0.393451
-0.0267541
0.402772
-0.0211842
0.410198
-0.0156429
0.415579
-0.0104256
0.419396
-0.0055589
0.42165
-8.53845e-05
0.42337
0.00490816
0.424654
0.0109165
0.426434
0.0170376
0.429142
0.0252386
0.433459
0.0346792
0.439364
0.0470925
0.444854
0.0597704
0.446101
0.0684414
0.440199
0.0652146
0.428181
0.0495713
0.412553
0.0342144
0.394353
0.0281108
0.373052
0.0283617
0.348491
0.0304656
0.321947
0.0319082
0.295848
0.0321975
0.272259
0.0318515
0.251569
0.0321965
0.232569
0.0344004
0.21355
0.0393316
0.192382
0.0489332
0.16752
0.0631279
0.130011
0.0995033
0.0874389
0.0718038
-0.18515
-0.0668817
-0.16122
-0.0713674
-0.132597
-0.0855254
-0.102832
-0.091077
-0.0717279
-0.0959322
-0.0394357
-0.0995652
-0.00753761
-0.0985228
0.0222453
-0.0924797
0.0495379
-0.0844122
0.0742453
-0.0753407
0.0960424
-0.0655334
0.115105
-0.0566434
0.131815
-0.0488824
0.146452
-0.0419644
0.159321
-0.0365216
0.170762
-0.0320417
0.181039
-0.0285971
0.190419
-0.0259581
0.19911
-0.0240922
0.207277
-0.0226213
0.215106
-0.0216686
0.22261
-0.0207843
0.229692
-0.0196593
0.236052
-0.0171235
0.241399
-0.0138465
0.245848
-0.011196
0.249465
-0.00857311
0.25229
-0.00612609
0.254388
-0.00383472
0.255749
-0.00163446
0.256431
0.00049868
0.256397
0.00257009
0.255653
0.00461849
0.254126
0.00670342
0.251731
0.0090347
0.248115
0.0123494
0.242959
0.0169306
0.232667
0.0344755
0.214843
0.055808
-0.199385
0.222068
-0.0854841
0.244833
-0.0886333
0.269867
-0.0905804
0.292721
-0.0828386
0.314882
-0.0796672
0.336134
-0.0731554
0.355658
-0.0646273
0.373277
-0.05735
0.389204
-0.0484996
0.403219
-0.0407691
0.415433
-0.0333989
0.425861
-0.026071
0.434568
-0.0191321
0.441627
-0.0126178
0.447339
-0.00579761
0.451159
0.00108838
0.453192
0.00888328
0.453213
0.0170164
0.451772
0.0266794
0.449354
0.0370976
0.447212
0.0492348
0.44661
0.0603723
0.447031
0.0680203
0.446219
0.0660264
0.442275
0.0535157
0.435771
0.0407184
0.428081
0.035801
0.419503
0.0369397
0.408973
0.0409949
0.394806
0.046076
0.375536
0.0514673
0.350978
0.0564098
0.323028
0.0601459
0.294375
0.0630542
0.26633
0.0673769
0.23759
0.0776722
0.206079
0.0946399
0.163374
0.142209
0.112772
0.122411
-0.176989
-0.089277
-0.152984
-0.0953727
-0.123863
-0.114647
-0.0939671
-0.120973
-0.0627996
-0.1271
-0.0304054
-0.131959
0.00140593
-0.130334
0.0308146
-0.121888
0.0576359
-0.111234
0.0819697
-0.0996745
0.103464
-0.0870281
0.122363
-0.0755416
0.139095
-0.0656151
0.153916
-0.056785
0.167144
-0.0497502
0.179005
-0.0439026
0.189792
-0.0393843
0.199684
-0.0358495
0.20891
-0.0333181
0.217608
-0.0313199
0.22589
-0.0299503
0.233821
-0.0287149
0.24134
-0.0271782
0.248125
-0.0239088
0.253928
-0.0196492
0.258809
-0.0160777
0.262822
-0.0125859
0.266018
-0.00932212
0.268429
-0.00624558
0.270124
-0.00332955
0.271135
-0.000512644
0.271485
0.00222033
0.271167
0.00493638
0.270165
0.00770578
0.268355
0.0108446
0.265367
0.0153372
0.260637
0.0216602
0.2509
0.0442129
0.232513
0.0741946
-0.195546
0.219051
-0.108989
0.242686
-0.112268
0.269112
-0.117006
0.292706
-0.106433
0.315844
-0.102805
0.338134
-0.0954461
0.358471
-0.084964
0.376958
-0.0758369
0.393884
-0.065426
0.408596
-0.0554804
0.421472
-0.046275
0.432444
-0.0370432
0.441789
-0.0284775
0.449188
-0.0200163
0.454784
-0.0113939
0.458644
-0.0027713
0.461042
0.00648548
0.462102
0.0159555
0.461694
0.0270876
0.460244
0.0385479
0.457859
0.0516202
0.454954
0.0632766
0.451606
0.0713691
0.447132
0.0704998
0.440882
0.0597655
0.433306
0.0482948
0.425577
0.0435308
0.418433
0.0440829
0.411923
0.0475047
0.405704
0.0522945
0.39869
0.0584822
0.388817
0.0662824
0.37342
0.0755431
0.35077
0.0857044
0.3216
0.0965471
0.287755
0.111516
0.249702
0.132693
0.201121
0.190791
0.144753
0.178781
-0.1721
-0.112723
-0.147367
-0.120106
-0.116981
-0.145032
-0.086233
-0.151721
-0.054333
-0.159
-0.0212883
-0.165004
0.0109245
-0.162547
0.0403721
-0.151336
0.0670605
-0.137922
0.0911805
-0.123794
0.112432
-0.10828
0.131159
-0.094269
0.147863
-0.0823192
0.162764
-0.0716856
0.176178
-0.0631642
0.188368
-0.0560928
0.199511
-0.0505273
0.209792
-0.0461298
0.219404
-0.0429299
0.228485
-0.0404012
0.237127
-0.0385927
0.245371
-0.0369584
0.253179
-0.0349863
0.260275
-0.0310053
0.266397
-0.0257705
0.271575
-0.0212559
0.27585
-0.0168609
0.279274
-0.0127466
0.28187
-0.0088409
0.283671
-0.00513065
0.284722
-0.00156331
0.285088
0.00185365
0.284778
0.00524612
0.283776
0.00870792
0.282059
0.0125622
0.279291
0.0181048
0.274943
0.0260086
0.26639
0.0527653
0.248579
0.0920061
-0.192372
0.216892
-0.133509
0.241851
-0.137227
0.269655
-0.14481
0.294456
-0.131234
0.318618
-0.126967
0.34228
-0.119108
0.363595
-0.106279
0.383377
-0.0956187
0.401318
-0.0833669
0.417302
-0.0714648
0.431558
-0.0605312
0.443902
-0.0493874
0.454565
-0.0391399
0.46354
-0.0289918
0.4707
-0.0185535
0.476406
-0.00847688
0.48026
0.00263149
0.482383
0.0138319
0.482969
0.026502
0.481995
0.0395218
0.479698
0.0539175
0.476329
0.0666447
0.471622
0.0760765
0.465116
0.0770063
0.456628
0.0682533
0.446782
0.0581402
0.436608
0.0537053
0.426742
0.053949
0.417374
0.0568727
0.40866
0.061008
0.400849
0.0662938
0.393882
0.0732493
0.386892
0.082533
0.377256
0.09534
0.360709
0.113095
0.333654
0.138571
0.295423
0.170925
0.242952
0.243262
0.181832
0.239905
-0.167961
-0.137134
-0.142415
-0.145652
-0.110723
-0.176724
-0.0788347
-0.18361
-0.0459335
-0.191901
-0.0119613
-0.198976
0.0209709
-0.195479
0.0507828
-0.181148
0.0775805
-0.16472
0.101653
-0.147867
0.122757
-0.129383
0.141299
-0.112811
0.15788
-0.0988997
0.172762
-0.0865678
0.186253
-0.0766556
0.198612
-0.0684518
0.210001
-0.0619165
0.220616
-0.0567446
0.230583
-0.0528967
0.240031
-0.0498492
0.249051
-0.0476127
0.257664
-0.0455717
0.265816
-0.0431381
0.273321
-0.0385103
0.279847
-0.0322964
0.285382
-0.0267913
0.290019
-0.0214981
0.293755
-0.0164824
0.296632
-0.0117181
0.298683
-0.00718141
0.299951
-0.0028315
0.300466
0.0013392
0.300235
0.00547697
0.299283
0.00965953
0.297473
0.0143719
0.294569
0.0210096
0.289896
0.0306808
0.281524
0.0611373
0.26413
0.1094
-0.190521
0.21637
-0.159357
0.242369
-0.163226
0.271739
-0.174181
0.29781
-0.157306
0.32322
-0.152377
0.347952
-0.14384
0.370424
-0.128751
0.391042
-0.116237
0.410012
-0.102336
0.426909
-0.0883623
0.441965
-0.0755874
0.455318
-0.0627403
0.46684
-0.0506617
0.476603
-0.0387546
0.48468
-0.0266309
0.490902
-0.0146987
0.495458
-0.00192487
0.498342
0.0109486
0.499691
0.0251523
0.499601
0.0396125
0.498276
0.0552419
0.495776
0.0691449
0.491973
0.0798793
0.486126
0.0828539
0.478024
0.076355
0.468153
0.0680109
0.457457
0.0644018
0.446523
0.0648833
0.435485
0.0679102
0.424343
0.0721497
0.413291
0.077346
0.402673
0.083867
0.39299
0.0922168
0.384469
0.10386
0.375807
0.121757
0.361782
0.152596
0.334361
0.198347
0.285768
0.291855
0.222688
0.302987
-0.164899
-0.162755
-0.138242
-0.172309
-0.105093
-0.209873
-0.0718887
-0.216814
-0.0377815
-0.226008
-0.00256263
-0.234195
0.0313554
-0.229397
0.0618376
-0.21163
0.0889944
-0.191876
0.113236
-0.172108
0.134293
-0.150441
0.152714
-0.131232
0.169174
-0.115361
0.183977
-0.10137
0.197458
-0.0901371
0.209903
-0.0808967
0.221483
-0.0734967
0.232341
-0.0676018
0.242609
-0.0631648
0.25238
-0.0596209
0.261726
-0.0569586
0.27066
-0.054505
0.279156
-0.0516345
0.28697
-0.0463242
0.293872
-0.0391982
0.299779
-0.0326991
0.30472
-0.0264389
0.308747
-0.0205094
0.311858
-0.0148283
0.314114
-0.00943828
0.315522
-0.0042391
0.316143
0.000717715
0.315993
0.00562722
0.31503
0.0106224
0.313214
0.0161884
0.310217
0.0240063
0.305342
0.0355559
0.296954
0.0695255
0.280072
0.126282
-0.189359
0.216543
-0.186541
0.243974
-0.190657
0.275026
-0.205233
0.302299
-0.184579
0.328998
-0.179076
0.354979
-0.169821
0.378469
-0.152241
0.400296
-0.138064
0.420082
-0.122122
0.437917
-0.106197
0.454029
-0.0916996
0.468259
-0.0769706
0.480688
-0.0630904
0.491443
-0.04951
0.500471
-0.035659
0.507751
-0.0219779
0.513343
-0.00751738
0.517241
0.00705081
0.519418
0.0229751
0.520001
0.0390292
0.519213
0.0560304
0.517079
0.0712789
0.513524
0.0834346
0.508155
0.0882223
0.500608
0.0839025
0.491227
0.0773917
0.480834
0.0747947
0.469956
0.0757613
0.458668
0.0791987
0.446949
0.083868
0.434712
0.0895834
0.422032
0.0965477
0.409062
0.105186
0.396395
0.116527
0.384942
0.133211
0.374643
0.162895
0.359218
0.213773
0.323221
0.327853
0.26445
0.36176
-0.162505
-0.189609
-0.134688
-0.200126
-0.0998241
-0.244737
-0.0650954
-0.251543
-0.0295506
-0.261553
0.00703637
-0.270782
0.0421752
-0.264536
0.0735464
-0.243001
0.101255
-0.219585
0.125806
-0.196659
0.14696
-0.171595
0.165324
-0.149595
0.181681
-0.131718
0.196378
-0.116068
0.209797
-0.103555
0.222281
-0.0933815
0.233948
-0.0851634
0.244979
-0.0786326
0.255471
-0.0736574
0.265519
-0.0696684
0.275151
-0.0665909
0.284412
-0.0637659
0.293237
-0.0604591
0.30142
-0.054507
0.308692
-0.0464711
0.314969
-0.0389758
0.320266
-0.0317357
0.324616
-0.0248592
0.328008
-0.018221
0.330488
-0.0119178
0.332105
-0.00585643
0.332867
-4.38072e-05
0.33281
0.00568382
0.331899
0.0115333
0.330033
0.0180546
0.326935
0.0271041
0.321872
0.0406183
0.313362
0.0780363
0.29699
0.142653
-0.18903
0.217584
-0.215095
0.246463
-0.219536
0.279215
-0.237985
0.307879
-0.213242
0.336046
-0.207242
0.363384
-0.197159
0.388093
-0.176951
0.410807
-0.160778
0.431704
-0.14302
0.450373
-0.124866
0.467195
-0.108522
0.482244
-0.0920188
0.495537
-0.0763837
0.507094
-0.0610675
0.51693
-0.0454951
0.525091
-0.0301382
0.531464
-0.0138906
0.536068
0.00244717
0.538966
0.0200768
0.540223
0.0377718
0.540023
0.0562311
0.538407
0.0728943
0.535275
0.0865668
0.530332
0.093165
0.523301
0.0909339
0.5144
0.0862921
0.504319
0.0848764
0.493642
0.086438
0.482502
0.0903388
0.470814
0.0955557
0.458515
0.101883
0.445502
0.10956
0.431624
0.119065
0.416811
0.13134
0.401434
0.148589
0.386944
0.177384
0.374429
0.226288
0.351145
0.351136
0.302336
0.410571
-0.160687
-0.217953
-0.131513
-0.229299
-0.0948691
-0.281382
-0.058573
-0.287839
-0.0213728
-0.298753
0.0167981
-0.308953
0.0534108
-0.301149
0.0858426
-0.275433
0.114285
-0.248027
0.139317
-0.221691
0.160686
-0.192965
0.179095
-0.168003
0.195398
-0.14802
0.210001
-0.130671
0.223339
-0.116893
0.235771
-0.105814
0.247488
-0.0968799
0.258621
-0.0897652
0.269278
-0.0843144
0.279549
-0.0799399
0.289469
-0.076511
0.299002
-0.0732986
0.308132
-0.0695894
0.316664
-0.0630389
0.324323
-0.0541301
0.330949
-0.0456016
0.336597
-0.0373837
0.341242
-0.0295042
0.344929
-0.021908
0.347655
-0.0146434
0.349453
-0.00765482
0.350365
-0.000955606
0.350387
0.00566187
0.349515
0.0124048
0.347648
0.0199223
0.344476
0.0302761
0.339237
0.0458572
0.330699
0.0865737
0.31491
0.158443
-0.18913
0.219297
-0.245263
0.249727
-0.249965
0.284373
-0.272631
0.314496
-0.243366
0.343954
-0.236701
0.372767
-0.225971
0.39865
-0.202834
0.422505
-0.184633
0.444391
-0.164905
0.463942
-0.144417
0.481624
-0.126204
0.497555
-0.10795
0.511565
-0.0903937
0.523854
-0.0733562
0.53457
-0.0562108
0.543454
-0.0390229
0.550635
-0.0210717
0.556012
-0.00292924
0.559725
0.016364
0.561743
0.0357539
0.562056
0.0559179
0.560914
0.0740362
0.558149
0.0893321
0.553569
0.0977447
0.546911
0.0975917
0.538307
0.0948965
0.528447
0.094736
0.517867
0.0970182
0.506677
0.101528
0.494948
0.107285
0.482597
0.114234
0.469532
0.122625
0.455593
0.133004
0.440491
0.146442
0.423885
0.165195
0.405664
0.195605
0.38942
0.242533
0.371576
0.368981
0.332416
0.449733
-0.159412
-0.247671
-0.128771
-0.25994
-0.0901635
-0.319989
-0.0520058
-0.325997
-0.0131171
-0.337642
0.0268954
-0.348966
0.0650501
-0.339303
0.0987298
-0.309113
0.128076
-0.277374
0.153758
-0.247372
0.175464
-0.214671
0.193988
-0.186527
0.210301
-0.164334
0.224832
-0.145202
0.238078
-0.13014
0.250452
-0.118188
0.262147
-0.108575
0.27332
-0.100939
0.284112
-0.0951063
0.294556
-0.0903844
0.304664
-0.0866188
0.314477
-0.0831114
0.323914
-0.0790264
0.332776
-0.0719015
0.340784
-0.0621375
0.347794
-0.0526117
0.353774
-0.0433636
0.358762
-0.0344923
0.362733
-0.0258785
0.365711
-0.017622
0.367736
-0.00967991
0.368793
-0.00201241
0.368936
0.00551846
0.368123
0.0132185
0.366236
0.0218085
0.362973
0.0335399
0.357611
0.0512186
0.349063
0.0951221
0.333834
0.173671
-0.189839
0.22158
-0.277003
0.25359
-0.281976
0.290168
-0.309209
0.321973
-0.27517
0.353049
-0.267777
0.383337
-0.256259
0.41037
-0.229867
0.435457
-0.209719
0.458382
-0.187831
0.478879
-0.164915
0.497359
-0.144683
0.513932
-0.124523
0.528748
-0.10521
0.541889
-0.0864969
0.553204
-0.0675255
0.562872
-0.0486914
0.570779
-0.0289785
0.576941
-0.00909093
0.581292
0.0120125
0.58393
0.0331161
0.584871
0.0549775
0.584159
0.0747475
0.581808
0.0916839
0.577635
0.101917
0.571406
0.103821
0.563223
0.103079
0.553581
0.104378
0.543009
0.10759
0.531777
0.11276
0.519832
0.11923
0.507235
0.126832
0.493942
0.135918
0.479821
0.147125
0.464635
0.161627
0.447995
0.181836
0.428846
0.214752
0.408619
0.262762
0.390074
0.387525
0.355248
0.484561
-0.158445
-0.279065
-0.126293
-0.292092
-0.0856076
-0.360675
-0.045515
-0.366089
-0.00465831
-0.378498
0.0372301
-0.390854
0.077156
-0.379229
0.112235
-0.344191
0.142655
-0.307794
0.169062
-0.27378
0.191245
-0.236854
0.209993
-0.205275
0.226389
-0.18073
0.240881
-0.159693
0.254047
-0.143306
0.266336
-0.130477
0.277982
-0.12022
0.289171
-0.112128
0.300003
-0.105938
0.310568
-0.10095
0.320887
-0.0969378
0.330927
-0.0931515
0.340622
-0.088722
0.349815
-0.0810943
0.358174
-0.070496
0.365536
-0.0599742
0.371883
-0.0497105
0.377192
-0.0398012
0.381477
-0.0301634
0.384716
-0.0208609
0.386939
-0.0119032
0.388189
-0.0032623
0.388438
0.00526901
0.387689
0.0139681
0.385794
0.0237036
0.382478
0.0368553
0.376983
0.0567141
0.368445
0.10366
0.353843
0.188273
-0.190859
0.2244
-0.310545
0.258172
-0.315748
0.296792
-0.347828
0.330203
-0.308582
0.362895
-0.300469
0.39477
-0.288134
0.423313
-0.258409
0.449539
-0.235946
0.473543
-0.211834
0.49495
-0.186321
0.514333
-0.164067
0.531778
-0.141968
0.547219
-0.120652
0.560992
-0.100269
0.573089
-0.0796224
0.583454
-0.0590561
0.592026
-0.0375507
0.598824
-0.0158895
0.603844
0.00699252
0.607131
0.0298298
0.608661
0.0534469
0.608476
0.0749322
0.606548
0.0936118
0.602767
0.105699
0.596938
0.109649
0.589137
0.11088
0.579749
0.113767
0.569297
0.118042
0.557977
0.12408
0.545865
0.131343
0.532968
0.139729
0.519285
0.149602
0.504774
0.161636
0.48921
0.17719
0.472376
0.198671
0.453396
0.233732
0.431396
0.284763
0.41032
0.408601
0.375895
0.518988
-0.157824
-0.3121
-0.123943
-0.325973
-0.081119
-0.403498
-0.0389301
-0.408278
0.00397335
-0.421402
0.0479161
-0.434797
0.0897928
-0.421106
0.126378
-0.380776
0.157979
-0.339396
0.185296
-0.301097
0.208063
-0.25962
0.227135
-0.224346
0.243647
-0.197243
0.258159
-0.174205
0.271266
-0.156413
0.283476
-0.142687
0.295041
-0.131784
0.306192
-0.12328
0.317062
-0.116807
0.327699
-0.111587
0.338145
-0.107384
0.348372
-0.103378
0.358346
-0.0986959
0.367841
-0.0905892
0.376539
-0.0791944
0.384256
-0.0676906
0.390942
-0.0563967
0.396598
-0.0454573
0.401166
-0.0347317
0.404689
-0.0243835
0.407148
-0.0143629
0.408567
-0.00468117
0.408963
0.00487377
0.408266
0.014665
0.406388
0.0255809
0.40301
0.040234
0.397407
0.0623162
0.388943
0.112124
0.374978
0.202238
-0.192369
0.227624
-0.3458
0.263259
-0.351383
0.30404
-0.388608
0.339308
-0.343849
0.373756
-0.334918
0.407276
-0.321655
0.437243
-0.288376
0.464809
-0.263512
0.489881
-0.236906
0.51228
-0.208721
0.532507
-0.184293
0.550697
-0.160158
0.566966
-0.136921
0.581452
-0.114756
0.594174
-0.0923439
0.605141
-0.0700231
0.614388
-0.0467973
0.621873
-0.0233745
0.627527
0.00133859
0.631337
0.0260198
0.633412
0.0513715
0.633684
0.0746601
0.63218
0.0951162
0.62885
0.109028
0.623522
0.114978
0.616114
0.118287
0.607036
0.122845
0.596698
0.12838
0.585357
0.135421
0.573106
0.143594
0.559958
0.152877
0.545903
0.163657
0.530896
0.176643
0.514786
0.193299
0.497396
0.216062
0.478303
0.252824
0.455979
0.307087
0.433123
0.431457
0.398371
0.553741
-0.157415
-0.347054
-0.121869
-0.36152
-0.0766756
-0.448691
-0.0322914
-0.452663
0.0128601
-0.466553
0.0590726
-0.481009
0.102923
-0.464956
0.141216
-0.419069
0.174124
-0.372304
0.202455
-0.329428
0.225901
-0.283067
0.245381
-0.243827
0.262129
-0.213991
0.276712
-0.188788
0.289787
-0.169488
0.301924
-0.154824
0.313406
-0.143267
0.324494
-0.134367
0.335335
-0.127648
0.346018
-0.122271
0.356557
-0.117923
0.366958
-0.113779
0.377145
-0.108883
0.386936
-0.10038
0.395951
-0.0882102
0.404008
-0.0757473
0.411039
-0.0634274
0.417004
-0.0514225
0.421897
-0.0396248
0.425698
-0.0281842
0.428403
-0.0170686
0.430029
-0.00630639
0.430555
0.00434771
0.429949
0.0152707
0.428078
0.0274522
0.424676
0.0436353
0.418997
0.0679958
0.41057
0.12055
0.397286
0.215523
-0.194117
0.23132
-0.383003
0.268922
-0.388985
0.312005
-0.431691
0.349166
-0.381011
0.385402
-0.371153
0.420686
-0.356939
0.452205
-0.319895
0.481091
-0.292398
0.507402
-0.263217
0.530805
-0.232123
0.552005
-0.205493
0.570989
-0.179142
0.587978
-0.15391
0.603147
-0.129925
0.61642
-0.105617
0.628075
-0.0816775
0.637944
-0.0566664
0.646017
-0.0314475
0.652296
-0.00494047
0.656726
0.0215893
0.659305
0.0487928
0.660075
0.0738897
0.659018
0.0961737
0.656101
0.111944
0.651187
0.119893
0.644187
0.125287
0.635442
0.13159
0.625291
0.138531
0.613971
0.146741
0.601607
0.155959
0.588218
0.166265
0.573833
0.178042
0.558359
0.192117
0.541719
0.209939
0.523657
0.234124
0.503993
0.272488
0.481458
0.329624
0.457872
0.455043
0.423377
0.588237
-0.157379
-0.383792
-0.119788
-0.399111
-0.0722108
-0.496268
-0.0254475
-0.499426
0.0220224
-0.514023
0.0705729
-0.52956
0.116691
-0.511075
0.156777
-0.459155
0.191162
-0.406688
0.220606
-0.358872
0.244843
-0.307303
0.264805
-0.263789
0.281841
-0.231027
0.296539
-0.203485
0.309612
-0.182561
0.321703
-0.166915
0.333111
-0.154675
0.344104
-0.14536
0.3549
-0.138443
0.365592
-0.132963
0.376195
-0.128527
0.386713
-0.124297
0.39711
-0.119279
0.407157
-0.110427
0.416471
-0.0975246
0.424851
-0.0841272
0.432216
-0.0707919
0.438523
-0.0577297
0.443729
-0.0448309
0.447814
-0.0322694
0.450764
-0.020018
0.452581
-0.00812415
0.453266
0.00366293
0.452752
0.0157845
0.450913
0.0292914
0.447483
0.0470654
0.441758
0.0737207
0.433457
0.128851
0.420827
0.228153
-0.196173
0.235485
-0.422314
0.275114
-0.428614
0.320613
-0.47719
0.359734
-0.420132
0.397906
-0.409325
0.435148
-0.394182
0.4682
-0.352947
0.498538
-0.322735
0.526213
-0.290892
0.550725
-0.256636
0.572821
-0.227588
0.592662
-0.198984
0.610292
-0.17154
0.626146
-0.14578
0.640179
-0.11965
0.652405
-0.093903
0.662875
-0.0671369
0.67151
-0.0400818
0.678255
-0.0116858
0.683208
0.0166363
0.686326
0.0456751
0.687513
0.0727019
0.686897
0.0967905
0.684418
0.114423
0.679962
0.124349
0.673434
0.131814
0.664991
0.140033
0.655042
0.148479
0.643816
0.157967
0.631375
0.168399
0.617799
0.17984
0.603089
0.192753
0.587235
0.207971
0.570071
0.227103
0.551356
0.25284
0.530947
0.292895
0.507966
0.352606
0.48399
0.479019
0.450361
0.621866
-0.15743
-0.422536
-0.117956
-0.438584
-0.0677156
-0.546509
-0.0184642
-0.548677
0.0315009
-0.563988
0.0826238
-0.580683
0.131039
-0.55949
0.173112
-0.501228
0.209026
-0.442602
0.239739
-0.389586
0.26484
-0.332404
0.285412
-0.284362
0.30281
-0.248425
0.317689
-0.218364
0.330821
-0.195693
0.342866
-0.17896
0.354189
-0.165999
0.365116
-0.156287
0.375841
-0.149168
0.386495
-0.143617
0.397126
-0.139158
0.407755
-0.134926
0.41832
-0.129844
0.428597
-0.120705
0.438209
-0.107136
0.446892
-0.0928109
0.454578
-0.0784773
0.461195
-0.0643471
0.466714
-0.0503492
0.471075
-0.0366304
0.474287
-0.0232303
0.476334
-0.0101713
0.477163
0.00283366
0.476768
0.0161796
0.474979
0.0310805
0.471538
0.0505065
0.465796
0.0794632
0.457592
0.137054
0.44566
0.240086
-0.198591
0.240065
-0.463788
0.281826
-0.470375
0.329843
-0.525207
0.371036
-0.461324
0.41133
-0.449619
0.450533
-0.433385
0.485296
-0.38771
0.517197
-0.354636
0.546174
-0.31987
0.571791
-0.282253
0.594889
-0.250686
0.615615
-0.21971
0.634125
-0.190049
0.650617
-0.162273
0.665244
-0.134276
0.678055
-0.106714
0.689073
-0.0781549
0.698252
-0.0492607
0.705623
-0.0190565
0.71105
0.0112089
0.714592
0.0421335
0.716271
0.0710221
0.716049
0.0970133
0.713987
0.116484
0.709952
0.128384
0.70385
0.137916
0.695795
0.148088
0.686079
0.158195
0.674929
0.169118
0.662448
0.18088
0.64872
0.193569
0.633748
0.207725
0.617483
0.224236
0.599829
0.244757
0.580551
0.272118
0.559454
0.313992
0.535779
0.376281
0.511383
0.503415
0.478785
0.654465
-0.157681
-0.463446
-0.116058
-0.480207
-0.0631117
-0.599456
-0.0112271
-0.600562
0.0413878
-0.616603
0.0952031
-0.634498
0.146123
-0.61041
0.190274
-0.545379
0.227894
-0.480222
0.259937
-0.421629
0.286037
-0.358503
0.30726
-0.305585
0.325081
-0.266245
0.340204
-0.233488
0.353425
-0.208914
0.365475
-0.19101
0.376732
-0.177256
0.387568
-0.167123
0.398213
-0.159814
0.408824
-0.154228
0.419451
-0.149784
0.430133
-0.145607
0.440843
-0.140554
0.451356
-0.131218
0.461216
-0.116996
0.470181
-0.101776
0.478171
-0.0864669
0.485101
-0.0712772
0.490927
-0.0561753
0.495589
-0.0412931
0.49906
-0.0267012
0.501307
-0.0124184
0.502332
0.00180865
0.502045
0.0164672
0.500321
0.0328044
0.496893
0.0539346
0.491148
0.0852076
0.483106
0.145097
0.471891
0.2513
-0.201219
0.244916
-0.507485
0.289009
-0.514469
0.339711
-0.57591
0.383142
-0.504755
0.425602
-0.492078
0.466844
-0.474627
0.503469
-0.424334
0.536986
-0.388154
0.567352
-0.350235
0.594207
-0.309108
0.618446
-0.274925
0.640035
-0.241299
0.659318
-0.209332
0.676546
-0.179501
0.691776
-0.149506
0.705188
-0.120126
0.716741
-0.0897077
0.72647
-0.0589902
0.734282
-0.0268688
0.740225
0.0052666
0.744204
0.0381537
0.746267
0.0689596
0.746482
0.0967982
0.744823
0.118144
0.741247
0.13196
0.735555
0.143608
0.727863
0.15578
0.718406
0.167652
0.707367
0.180157
0.6949
0.193347
0.681038
0.207431
0.66582
0.222943
0.649203
0.240854
0.631084
0.262876
0.611277
0.291926
0.589513
0.335755
0.565162
0.400633
0.540225
0.528352
0.508521
0.68617
-0.158082
-0.506582
-0.114247
-0.524042
-0.0584284
-0.655274
-0.00370641
-0.655284
0.0516879
-0.671998
0.108317
-0.691126
0.161947
-0.66404
0.208289
-0.591721
0.247748
-0.519681
0.281237
-0.455118
0.308391
-0.385657
0.330357
-0.327551
0.348698
-0.284586
0.364114
-0.248904
0.377474
-0.222274
0.389568
-0.203104
0.400789
-0.188477
0.411547
-0.177881
0.422105
-0.170372
0.432639
-0.164762
0.443252
-0.160396
0.453968
-0.156324
0.464794
-0.15138
0.47548
-0.141904
0.485571
-0.127086
0.494816
-0.111021
0.50309
-0.0947411
0.510332
-0.0785191
0.516446
-0.0622893
0.521398
-0.0462445
0.52513
-0.0304332
0.527624
-0.014913
0.528817
0.000615461
0.528652
0.0166324
0.527015
0.0344416
0.523611
0.0573392
0.517925
0.090893
0.510037
0.152985
0.49951
0.261827
-0.204167
0.250268
-0.553586
0.296805
-0.561005
0.350199
-0.629304
0.396097
-0.550653
0.44073
-0.536712
0.484247
-0.518144
0.522726
-0.462813
0.557965
-0.423393
0.589877
-0.382147
0.618047
-0.337279
0.643277
-0.300154
0.665909
-0.263931
0.685962
-0.229385
0.703912
-0.197451
0.719877
-0.165471
0.733828
-0.134077
0.745952
-0.101832
0.756169
-0.069208
0.764509
-0.0352085
0.770859
-0.00108303
0.775251
0.0337616
0.777758
0.0664524
0.778305
0.0962511
0.777041
0.119408
0.773854
0.135147
0.768576
0.148885
0.761272
0.163085
0.752096
0.176828
0.741251
0.191002
0.728799
0.205799
0.71484
0.22139
0.699395
0.238388
0.682441
0.257807
0.663901
0.281417
0.643529
0.312297
0.62121
0.358073
0.596216
0.425629
0.570638
0.55393
0.539703
0.717105
-0.158686
-0.552063
-0.112466
-0.570262
-0.0535622
-0.714178
0.00407083
-0.712917
0.0624611
-0.730388
0.122106
-0.750771
0.178483
-0.720417
0.227256
-0.640495
0.268628
-0.561052
0.303713
-0.490204
0.332032
-0.413976
0.35483
-0.350349
0.373735
-0.303492
0.389503
-0.264672
0.403059
-0.235829
0.415205
-0.215249
0.426429
-0.199701
0.437107
-0.18856
0.447578
-0.180842
0.458034
-0.175218
0.4686
-0.170963
0.47933
-0.167055
0.490251
-0.1623
0.501103
-0.152756
0.511409
-0.137392
0.520886
-0.120499
0.529423
-0.103278
0.536935
-0.0860315
0.543352
-0.0687066
0.548576
-0.0514681
0.552584
-0.0344412
0.555294
-0.0176232
0.556694
-0.000784452
0.556692
0.0166345
0.55512
0.0360138
0.551803
0.0606556
0.546167
0.0965292
0.538511
0.160641
0.52868
0.271657
-0.207345
0.255978
-0.602218
0.304989
-0.610017
0.361452
-0.685766
0.409667
-0.598869
0.456825
-0.583869
0.502613
-0.563932
0.543203
-0.503403
0.580178
-0.460368
0.613679
-0.415648
0.643187
-0.366787
0.6697
-0.326667
0.693267
-0.287499
0.714265
-0.250383
0.732973
-0.216159
0.749569
-0.182066
0.764138
-0.148646
0.776772
-0.114466
0.787457
-0.0798933
0.796204
-0.0439552
0.802995
-0.0078743
0.807825
0.0289312
0.810633
0.0636444
0.811553
0.0953318
0.810679
0.120281
0.807883
0.137944
0.803048
0.15372
0.796115
0.170017
0.787219
0.185724
0.77653
0.201691
0.764163
0.218166
0.750145
0.235409
0.734511
0.254022
0.717257
0.275061
0.698298
0.300374
0.677447
0.333149
0.654562
0.380957
0.628999
0.451193
0.602818
0.58011
0.57252
0.747402
-0.159393
-0.600015
-0.110668
-0.618988
-0.0485433
-0.776303
0.0121611
-0.773621
0.0736946
-0.791921
0.136533
-0.813609
0.195919
-0.779803
0.247173
-0.691749
0.290621
-0.604501
0.327366
-0.526948
0.356956
-0.443566
0.380671
-0.374063
0.40021
-0.323032
0.416405
-0.280867
0.4302
-0.249624
0.442462
-0.227512
0.453687
-0.210926
0.464323
-0.199196
0.474709
-0.191228
0.485104
-0.185612
0.495596
-0.181455
0.506333
-0.177792
0.517311
-0.173278
0.528303
-0.163748
0.538799
-0.147888
0.548479
-0.130179
0.557279
-0.112078
0.565056
-0.0938087
0.571727
-0.0753771
0.577253
-0.0569943
0.581511
-0.0386995
0.584468
-0.0205796
0.586045
-0.00236214
0.586196
0.0164836
0.584762
0.0374477
0.581508
0.0639096
0.575999
0.102039
0.568551
0.16809
0.559427
0.280781
-0.210811
0.262064
-0.653472
0.313751
-0.661704
0.37327
-0.745285
0.42421
-0.649808
0.473815
-0.633475
0.522136
-0.612253
0.564748
-0.546016
0.60368
-0.4993
0.638883
-0.45085
0.66988
-0.397783
0.697574
-0.354362
0.722297
-0.312222
0.74418
-0.272266
0.763685
-0.235665
0.780924
-0.199305
0.796129
-0.163851
0.809265
-0.127601
0.82042
-0.0910489
0.829646
-0.0531809
0.836811
-0.0150395
0.841974
0.0237687
0.845145
0.0604727
0.846397