/*--------------------------------*- C++ -*----------------------------------*\
| =========                 |                                                 |
| \\      /  F ield         | OpenFOAM: The Open Source CFD Toolbox           |
|  \\    /   O peration     | Version:  2312                                  |
|   \\  /    A nd           | Website:  www.openfoam.com                      |
|    \\/     M anipulation  |                                                 |
\*---------------------------------------------------------------------------*/
FoamFile
{
    version     2.0;
    format      ascii;
    arch        "LSB;label=32;scalar=64";
    class       volSymmTensorField;
    location    "250";
    object      turbulenceProperties:devReff;
}
// * * * * * * * * * * * * * * * * * * * * * * * * * * * * * * * * * * * * * //

dimensions      [0 2 -2 0 0 0 0];

internalField   nonuniform List<symmTensor> 
10720
(
(0.00163723 0.00425914 -1.6594e-21 -0.00177389 -6.22887e-20 0.00013666)
(0.0023888 0.00488151 1.06551e-21 -0.0024868 6.81852e-20 9.79966e-05)
(0.00361163 0.00546223 1.6013e-20 -0.00380894 6.77095e-20 0.000197312)
(0.00524685 0.00621664 7.50152e-20 -0.00549293 6.12663e-19 0.000246081)
(0.00742628 0.00687527 -3.04706e-19 -0.00769503 -1.22094e-18 0.00026875)
(0.0104059 0.00726377 -3.61619e-19 -0.0107974 -7.37122e-19 0.000391578)
(0.0143015 0.00737643 1.2773e-19 -0.014788 1.23512e-20 0.000486416)
(0.0191909 0.00686073 6.94475e-20 -0.0197736 1.09809e-19 0.000582762)
(0.025243 0.00535295 1.80893e-19 -0.0259898 -1.46119e-19 0.000746766)
(0.0325692 0.00260717 -2.77774e-20 -0.0334699 -2.78688e-20 0.000900682)
(0.0413479 -0.00189763 3.18826e-18 -0.0424396 1.28514e-18 0.00109173)
(0.0519661 -0.00873432 -7.59534e-19 -0.0532841 -5.83347e-19 0.00131806)
(0.0649648 -0.0188231 1.53619e-18 -0.0665582 -2.30644e-18 0.00159345)
(0.0812551 -0.0337519 7.49354e-19 -0.0832102 1.60782e-18 0.00195512)
(0.102376 -0.0561728 1.17606e-18 -0.104842 -2.08504e-18 0.00246657)
(0.130543 -0.0904133 4.81614e-19 -0.133718 7.34182e-18 0.003175)
(0.169885 -0.145065 3.69825e-17 -0.174192 1.96914e-17 0.00430687)
(0.224317 -0.232473 -1.0368e-17 -0.230199 1.39446e-17 0.00588154)
(0.310881 -0.388852 -4.1508e-18 -0.319495 -6.73881e-17 0.00861374)
(0.426607 -0.642075 2.23026e-18 -0.438786 -4.33257e-19 0.0121787)
(0.666408 -1.21373 -6.59848e-17 -0.685792 -8.96514e-17 0.0193833)
(0.946129 -2.11647 1.57694e-16 -0.972265 4.77275e-16 0.026136)
(1.76396 -5.12607 -2.57025e-16 -1.81606 -9.29707e-16 0.0521046)
(2.42957 -10.3199 4.5268e-16 -2.51301 1.24122e-16 0.083448)
(1.53134 -11.6716 -2.48392e-16 -1.57247 -1.19185e-17 0.0411333)
(0.528091 -11.2581 2.09872e-17 -0.516598 -1.27971e-15 -0.0114922)
(-0.145942 -11.0743 2.69909e-16 0.175812 -6.42623e-17 -0.02987)
(-0.666434 -11.2574 1.95478e-16 0.691241 4.12316e-16 -0.0248077)
(-1.13896 -11.4713 1.15123e-15 1.15538 5.59501e-16 -0.0164146)
(-1.57544 -11.4833 1.05081e-15 1.58376 4.51008e-15 -0.00831434)
(-1.96242 -11.2673 -2.01425e-15 1.96069 -1.73948e-15 0.00173158)
(-2.27882 -10.8592 -2.1809e-15 2.26833 -3.02251e-15 0.0104875)
(-2.49953 -10.2445 -9.25331e-16 2.48457 -3.97308e-15 0.0149582)
(-2.61175 -9.43709 -2.97074e-15 2.59634 -5.58116e-15 0.0154064)
(-2.5966 -8.42861 1.07478e-15 2.58237 2.92402e-15 0.0142384)
(-2.44342 -7.24981 1.80785e-16 2.43237 2.16757e-15 0.0110518)
(-2.0829 -5.69646 -4.64358e-17 2.06945 3.71776e-18 0.0134499)
(-1.59503 -4.19197 -1.79588e-15 1.59323 -1.10193e-16 0.00180384)
(-0.47681 -0.936429 -3.61109e-16 0.477561 -1.69627e-15 -0.000750875)
(0.000967969 0.00371425 1.24832e-21 -0.0010199 -4.47068e-21 5.1927e-05)
(0.000549489 0.00319825 -6.72727e-21 -0.000639574 6.83147e-21 9.00848e-05)
(0.00017899 0.00261203 -3.68942e-20 -0.000226099 -2.56572e-20 4.71094e-05)
(-6.74895e-05 0.00209048 3.82292e-20 3.33247e-05 -5.46282e-20 3.41648e-05)
(-0.000179722 0.0015975 -4.70205e-20 0.000161398 -4.68723e-20 1.83236e-05)
(-0.000173078 0.00116765 -2.41026e-19 0.000173431 2.92645e-19 -3.53374e-07)
(-8.44529e-05 0.000835613 8.13858e-20 0.000108524 2.73096e-19 -2.40708e-05)
(5.44068e-05 0.000637104 -4.34926e-20 -1.67002e-05 -3.89524e-19 -3.77065e-05)
(0.000230949 0.000621177 2.00729e-19 -0.000204517 4.97039e-21 -2.64323e-05)
(0.0004708 0.000742022 -1.48249e-19 -0.000467481 -4.26303e-20 -3.31887e-06)
(0.000811695 0.00102639 1.27528e-19 -0.00082232 3.0744e-19 1.06248e-05)
(0.00130552 0.00156572 2.6065e-19 -0.00132348 -1.22021e-19 1.79627e-05)
(0.00202303 0.0025245 -2.59343e-19 -0.00205317 -7.48118e-20 3.01388e-05)
(0.00305399 0.00413532 1.58963e-20 -0.00310524 1.13963e-19 5.12546e-05)
(0.00447098 0.00664197 9.40961e-19 -0.00454586 2.00319e-19 7.48857e-05)
(0.00629665 0.0103341 9.0176e-19 -0.00640529 -1.90338e-19 0.000108639)
(0.00863602 0.01563 4.084e-19 -0.00878169 6.37036e-19 0.000145677)
(0.0117363 0.0234176 2.9632e-19 -0.0119344 6.29405e-19 0.000198079)
(0.0161432 0.0354402 3.13314e-19 -0.0164115 -1.76982e-19 0.000268251)
(0.0226818 0.054984 5.91426e-19 -0.0230722 2.58733e-20 0.000390376)
(0.0329317 0.0885944 -8.89444e-19 -0.0335224 -5.39491e-18 0.000590691)
(0.0490597 0.148491 -3.13062e-18 -0.0500387 -1.03267e-19 0.000979032)
(0.0756859 0.263693 2.96878e-18 -0.0774631 5.24271e-18 0.0017772)
(0.116254 0.48766 2.14182e-18 -0.119889 -5.66908e-19 0.00363541)
(0.183205 0.979263 7.46959e-17 -0.191049 -1.51704e-17 0.00784399)
(0.277887 2.01726 -1.12071e-18 -0.294257 -1.16454e-17 0.0163705)
(0.409982 4.53204 1.98797e-19 -0.448448 7.32703e-18 0.0384659)
(0.421106 9.36802 2.28094e-18 -0.501399 -7.00754e-20 0.0802935)
(0.00810535 13.2908 3.23023e-19 -0.112233 4.37457e-21 0.104127)
(-0.628711 14.9585 3.6486e-16 0.530393 5.16339e-18 0.0983185)
(-1.26777 15.3974 -4.16072e-18 1.18553 -2.15109e-19 0.0822336)
(-1.8531 15.4174 -2.63769e-17 1.78577 3.57821e-17 0.0673299)
(-2.37723 15.2552 -2.24274e-15 2.32144 -1.86365e-16 0.0557882)
(-2.83296 14.9552 -4.02478e-15 2.78607 -2.60935e-16 0.0468965)
(-3.21831 14.533 3.58574e-15 3.17799 3.91531e-16 0.0403223)
(-3.53735 14.0098 -2.69394e-17 3.50209 1.37976e-16 0.0352586)
(-3.7749 13.2865 1.45732e-18 3.74282 -5.29301e-16 0.0320826)
(-3.91886 12.4687 -1.94325e-16 3.88887 2.83797e-16 0.0299924)
(-3.63916 10.064 -3.50992e-15 3.63255 1.27296e-16 0.00660771)
(0.000579448 -0.000460595 -4.14456e-21 -0.000520046 -1.26861e-20 -5.94021e-05)
(0.00049261 -0.000547415 7.54701e-21 -0.000425475 1.70811e-20 -6.7135e-05)
(0.000371412 -0.000623001 -3.39708e-22 -0.000291073 4.79106e-23 -8.03389e-05)
(0.000250511 -0.000652219 1.57265e-20 -0.00015856 2.33678e-21 -9.19505e-05)
(0.000133141 -0.00064514 1.07383e-20 -3.25266e-05 9.34228e-20 -0.000100614)
(2.31356e-05 -0.000610505 7.12241e-20 8.62063e-05 1.24538e-19 -0.000109342)
(-6.02896e-05 -0.000551415 -3.56675e-20 0.000177217 5.74351e-21 -0.000116928)
(-0.000116628 -0.000479016 -3.00611e-20 0.000238483 -7.89137e-21 -0.000121855)
(-0.000149287 -0.000404783 -1.69131e-19 0.000274585 -1.86841e-19 -0.000125298)
(-0.000157988 -0.000336009 -5.64646e-20 0.000285254 -1.85984e-20 -0.000127266)
(-0.000150081 -0.00027832 -4.89711e-19 0.000276993 -4.78366e-19 -0.000126912)
(-0.000132626 -0.000239983 -5.85838e-21 0.000258872 8.03707e-20 -0.000126246)
(-0.000110847 -0.000226176 -2.60771e-19 0.00024074 7.719e-21 -0.000129893)
(-8.61984e-05 -0.000245882 1.94022e-19 0.000231103 1.15314e-19 -0.000144905)
(-4.84445e-05 -0.000344775 -5.28098e-19 0.000241442 -1.53967e-19 -0.000192997)
(6.27125e-05 -0.000658953 1.92915e-18 0.000258207 4.67502e-19 -0.000320919)
(0.000455559 -0.00154848 -3.34751e-18 0.000141825 -2.90966e-18 -0.000597384)
(0.00150289 -0.00355047 -5.74597e-18 -0.000499572 -2.32803e-18 -0.00100332)
(0.00420328 -0.00867297 -1.19181e-17 -0.00253577 5.02842e-18 -0.00166751)
(0.0104811 -0.0211535 2.34404e-18 -0.00789664 -2.04216e-20 -0.00258449)
(0.0294857 -0.0625603 2.18895e-17 -0.0250712 3.22905e-17 -0.00441448)
(0.074001 -0.174606 -4.17142e-17 -0.0677806 -1.2688e-16 -0.00622035)
(0.194924 -0.544982 -2.19265e-18 -0.18712 2.27463e-16 -0.0078045)
(0.503458 -1.78106 5.217e-18 -0.500659 -8.73788e-17 -0.00279965)
(0.746842 -3.5386 -0 -0.770474 -0 0.0236315)
(0.787082 -5.37846 -2.54947e-17 -0.841336 6.0508e-16 0.054254)
(0.601463 -7.12491 -6.80659e-17 -0.67322 4.67285e-17 0.0717569)
(0.204282 -8.36926 -1.10297e-16 -0.279684 -4.74098e-16 0.0754021)
(-0.294032 -8.61813 -9.73716e-16 0.228188 -2.62156e-15 0.0658443)
(-0.705353 -7.88738 3.87722e-16 0.664194 -8.27843e-15 0.0411593)
(-0.92997 -6.68653 -1.09272e-16 0.921529 5.63107e-15 0.00844007)
(-0.997446 -5.47429 -3.39161e-16 1.01555 7.38087e-15 -0.0181024)
(-0.983803 -4.49492 -2.20024e-15 1.01361 4.26404e-15 -0.029806)
(-0.930352 -3.75031 6.48047e-15 0.96007 1.5413e-14 -0.0297183)
(-0.863438 -3.18351 -4.1204e-16 0.887527 -2.75802e-15 -0.0240899)
(-0.781403 -2.74107 6.2422e-15 0.801925 -3.6779e-15 -0.0205219)
(-0.730751 -2.43025 -2.23882e-16 0.74416 4.92351e-17 -0.0134086)
(-0.561091 -2.13697 3.18311e-15 0.596342 7.14194e-16 -0.0352505)
(-0.785327 -2.25194 5.73672e-15 0.696824 6.56242e-15 0.0885028)
(0.000645682 -0.000345079 4.77901e-21 -0.000595435 1.56473e-20 -5.02469e-05)
(0.000684461 -0.000224683 -3.07014e-21 -0.000637491 -6.55314e-20 -4.69701e-05)
(0.000691749 -7.6462e-05 -4.11626e-20 -0.000654699 -1.37315e-19 -3.705e-05)
(0.00065432 8.66223e-05 7.5596e-21 -0.000627716 1.94437e-19 -2.66038e-05)
(0.000565164 0.000235256 8.96196e-20 -0.000551025 -8.44513e-20 -1.41393e-05)
(0.000429367 0.000348886 -2.54157e-20 -0.000425697 -1.38454e-19 -3.66991e-06)
(0.000271293 0.000405981 1.3779e-19 -0.0002747 -2.98062e-19 3.40699e-06)
(0.000131158 0.000406963 -2.33402e-19 -0.000140224 -3.16825e-20 9.06652e-06)
(2.29239e-05 0.000374125 -1.28271e-19 -3.34335e-05 2.91659e-19 1.05096e-05)
(-6.62584e-05 0.000316385 -3.90762e-20 6.00264e-05 -1.49731e-20 6.23206e-06)
(-0.000121727 0.000243661 -6.45506e-20 0.000123136 -1.47674e-19 -1.40908e-06)
(-0.000141733 0.000176701 1.34276e-20 0.000150044 -7.86933e-20 -8.31161e-06)
(-0.000139957 0.000124421 5.41254e-20 0.000152753 1.38983e-19 -1.27969e-05)
(-0.000127561 8.66472e-05 -4.75605e-20 0.000142821 -3.23958e-20 -1.52602e-05)
(-0.000111039 6.09042e-05 -2.77717e-20 0.000127489 -9.9475e-20 -1.64501e-05)
(-9.41881e-05 4.40131e-05 -9.91211e-20 0.000110941 -3.02946e-20 -1.67531e-05)
(-7.86812e-05 3.33952e-05 -1.76432e-20 9.50926e-05 -2.3429e-22 -1.64114e-05)
(-6.53899e-05 2.68778e-05 -1.13778e-21 8.10386e-05 -1.02427e-20 -1.56488e-05)
(-5.43336e-05 2.27369e-05 -1.13162e-20 6.89882e-05 8.15535e-21 -1.46547e-05)
(-4.5285e-05 1.99667e-05 1.97258e-20 5.89142e-05 -6.73891e-21 -1.36292e-05)
(-3.79969e-05 1.79344e-05 -1.19554e-19 5.07268e-05 8.85275e-20 -1.27299e-05)
(-3.2672e-05 1.64707e-05 -2.54665e-20 4.49168e-05 5.2789e-21 -1.22447e-05)
(-2.91895e-05 1.552e-05 -9.40637e-22 4.16867e-05 -2.38964e-20 -1.24973e-05)
(-2.68697e-05 1.54971e-05 1.13349e-19 4.05133e-05 6.30986e-21 -1.36436e-05)
(-2.46028e-05 1.72639e-05 -9.8412e-20 3.96848e-05 8.41732e-21 -1.5082e-05)
(-0.000235173 0.000213391 -9.61001e-19 0.000404358 2.1161e-19 -0.000169185)
(-0.00119706 0.00135645 -8.19419e-20 0.00216691 -1.24228e-19 -0.000969848)
(-0.00866784 0.0119929 -6.60085e-21 0.016248 -3.45363e-19 -0.00758019)
(-0.0262252 0.045929 -4.9785e-20 0.0499543 -6.76492e-22 -0.0237291)
(-0.0449424 0.102713 2.71056e-18 0.0849928 2.21892e-18 -0.0400503)
(-0.0579702 0.170669 1.82384e-19 0.105291 -9.56218e-19 -0.0473209)
(-0.0659752 0.235228 4.65695e-18 0.111225 -1.73875e-17 -0.04525)
(-0.0730148 0.289366 2.45552e-15 0.112015 1.76595e-16 -0.039)
(-0.0819842 0.334927 2.30253e-15 0.114735 1.25944e-16 -0.0327512)
(-0.0941489 0.375372 -2.13831e-15 0.122119 -2.52932e-16 -0.0279697)
(-0.108445 0.415578 2.07403e-15 0.133599 2.72169e-16 -0.0251538)
(-0.128782 0.456234 -3.67728e-15 0.151568 -5.42861e-16 -0.0227857)
(-0.147332 0.552473 -3.42299e-15 0.174178 -7.47788e-16 -0.0268452)
(-0.20769 0.776262 -3.41927e-15 0.197454 -1.03282e-16 0.010236)
(0.000333651 -0.000312862 -1.56804e-21 -0.000360048 -5.6541e-21 2.63968e-05)
(0.00025832 -0.000372332 -3.36497e-20 -0.000290204 -7.93671e-20 3.18846e-05)
(0.000160801 -0.000413599 2.4748e-20 -0.000197937 5.91795e-20 3.71362e-05)
(5.20137e-05 -0.000426389 3.41397e-20 -9.68975e-05 6.46456e-20 4.48837e-05)
(-5.44853e-05 -0.000413092 6.17152e-20 3.59422e-06 8.91434e-20 5.08911e-05)
(-0.000154842 -0.000372458 -1.8934e-19 9.79555e-05 -3.31433e-19 5.68869e-05)
(-0.000239001 -0.000308478 1.32592e-19 0.000175478 2.66189e-19 6.35225e-05)
(-0.000300048 -0.000230724 1.76502e-19 0.00023117 1.57478e-19 6.88783e-05)
(-0.000337806 -0.000145393 -1.01144e-20 0.000264334 2.12932e-20 7.34714e-05)
(-0.000352996 -6.10777e-05 1.06883e-19 0.000275476 1.90588e-19 7.75198e-05)
(-0.000348679 1.66221e-05 -2.31372e-19 0.000268548 -1.09229e-20 8.01311e-05)
(-0.000331399 8.39433e-05 3.14182e-19 0.000250359 3.48648e-19 8.10402e-05)
(-0.000307346 0.000139316 1.47742e-19 0.00022753 6.06625e-20 7.9816e-05)
(-0.000281381 0.000184879 7.38836e-20 0.000204157 -7.05679e-20 7.72236e-05)
(-0.000254057 0.000218772 2.11437e-19 0.000181584 2.08945e-19 7.24733e-05)
(-0.000223626 0.000237402 -5.20215e-19 0.000158768 -5.3061e-19 6.48585e-05)
(-0.000180058 0.000227966 1.16563e-19 0.000128104 1.70467e-19 5.1953e-05)
(-0.000152411 0.000223339 9.29052e-19 0.000110008 2.72523e-19 4.24027e-05)
(-0.000101828 0.000168199 2.12927e-19 7.55688e-05 1.56821e-19 2.62591e-05)
(-8.50335e-05 0.00015336 -6.26735e-20 6.57648e-05 -4.35351e-21 1.92687e-05)
(-0.00180166 0.00345553 1.80388e-18 0.00146682 -3.98197e-18 0.000334833)
(-6.242e-05 0.000123615 1.71723e-20 5.42618e-05 1.48074e-19 8.1582e-06)
(-0.00135402 0.00159149 2.83617e-17 0.00144271 -5.83817e-18 -8.86828e-05)
(0.00123596 -0.00460065 -5.62869e-18 -0.00099533 -2.34917e-18 -0.00024063)
(0.0117333 -0.051863 2.33152e-19 -0.0099684 5.89352e-19 -0.00176494)
(0.0312573 -0.187694 -5.58577e-17 -0.0271987 1.59817e-17 -0.00405859)
(0.0523748 -0.482932 1.98217e-17 -0.0464198 8.17884e-18 -0.00595503)
(0.0631578 -1.10109 -2.53879e-17 -0.0559564 -2.09793e-18 -0.00720141)
(0.0250934 -2.18148 -6.32121e-16 -0.0182912 6.45615e-16 -0.00680224)
(-0.118978 -3.60626 -1.08016e-15 0.122218 3.34312e-17 -0.00323975)
(-0.384902 -4.88832 3.89198e-15 0.379821 -1.14646e-15 0.00508043)
(-0.688793 -5.5034 3.17954e-15 0.674488 1.73318e-15 0.0143052)
(-0.902925 -5.35344 -1.535e-16 0.887193 4.29244e-15 0.0157327)
(-0.981186 -4.77785 6.63013e-15 0.972702 -5.03585e-15 0.00848404)
(-0.963447 -4.1209 5.15476e-15 0.961905 -2.92352e-15 0.0015417)
(-0.877567 -3.51752 -9.57407e-15 0.880512 -3.54588e-15 -0.00294537)
(-0.797791 -3.04787 -2.72367e-17 0.79688 -1.69074e-15 0.000910715)
(-0.531631 -2.55257 6.26921e-15 0.547615 -1.59026e-15 -0.0159844)
(-0.841857 -2.80928 -1.31264e-14 0.823838 4.22798e-15 0.0180191)
(0.000395277 -0.000236861 -7.37871e-21 -0.000419372 -1.78443e-20 2.40956e-05)
(0.00043559 -0.00015441 -6.13682e-21 -0.00045497 -6.74491e-21 1.93799e-05)
(0.000460058 -5.33352e-05 5.53519e-20 -0.000474991 9.69811e-20 1.49331e-05)
(0.000454789 5.433e-05 -3.34087e-20 -0.000464238 -1.62937e-21 9.44926e-06)
(0.000415729 0.00016043 7.96942e-21 -0.000421198 4.18129e-20 5.46883e-06)
(0.00034218 0.00024803 -1.30336e-20 -0.000344164 1.32213e-19 1.9838e-06)
(0.000244253 0.000303009 -3.01288e-20 -0.000243946 1.2532e-19 -3.07033e-07)
(0.000141107 0.000319917 3.51213e-19 -0.000141852 2.53621e-19 7.44762e-07)
(4.81802e-05 0.000309285 5.23691e-20 -4.96416e-05 -6.88599e-20 1.46145e-06)
(-2.83051e-05 0.000273958 1.87432e-19 2.72499e-05 2.44971e-20 1.05516e-06)
(-7.85445e-05 0.000221434 -1.45777e-19 7.7217e-05 -9.79435e-20 1.32753e-06)
(-0.000102646 0.000167002 -1.05138e-19 0.000100143 1.61396e-19 2.50298e-06)
(-0.000108692 0.000119397 1.13093e-19 0.000104632 -5.72526e-20 4.06039e-06)
(-0.000104072 8.1035e-05 9.2869e-20 9.83191e-05 -3.38676e-22 5.75279e-06)
(-9.40474e-05 5.20799e-05 -6.67871e-20 8.68776e-05 6.44511e-20 7.16977e-06)
(-8.20442e-05 3.10653e-05 -4.81034e-20 7.36853e-05 1.16129e-19 8.35885e-06)
(-7.02346e-05 1.64308e-05 1.16306e-19 6.10194e-05 -7.13132e-20 9.2152e-06)
(-5.97467e-05 6.33158e-06 1.07992e-19 4.99093e-05 -1.97204e-20 9.83741e-06)
(-5.10688e-05 -7.47629e-07 4.22398e-20 4.08821e-05 -3.74279e-21 1.01867e-05)
(-4.39432e-05 -6.07464e-06 -1.42373e-20 3.35029e-05 5.27037e-20 1.04403e-05)
(-3.80831e-05 -1.03962e-05 1.99657e-19 2.75022e-05 2.47181e-20 1.05809e-05)
(-3.29344e-05 -1.44424e-05 7.91921e-21 2.21645e-05 -3.67314e-20 1.07699e-05)
(-2.77646e-05 -1.86621e-05 -6.31916e-22 1.6698e-05 -2.36102e-21 1.10666e-05)
(-2.10939e-05 -2.26064e-05 -4.34707e-21 9.244e-06 -2.54249e-20 1.18499e-05)
(-1.29631e-05 -2.4795e-05 -3.56231e-21 -2.26319e-07 1.87264e-20 1.31894e-05)
(-4.81396e-06 -2.40769e-05 3.09779e-19 -9.42946e-06 -1.59068e-20 1.42434e-05)
(2.16468e-06 -2.25453e-05 8.36736e-22 -1.80148e-05 -2.44011e-23 1.58501e-05)
(5.47161e-06 -1.38268e-05 -2.36689e-20 -1.7647e-05 1.3308e-21 1.21754e-05)
(5.61901e-05 -7.33191e-05 -1.14463e-21 -0.000143578 -1.77459e-22 8.73881e-05)
(0.000480822 -0.000275412 -2.55349e-18 -0.00111223 -9.53074e-20 0.000631405)
(0.00144984 0.000426289 1.76603e-17 -0.00321996 7.81147e-19 0.00177012)
(0.00231283 0.00469043 -2.35048e-19 -0.00521383 -1.32351e-20 0.002901)
(0.00185766 0.0154491 -2.73232e-16 -0.00506903 -1.28957e-17 0.00321136)
(-0.000686145 0.034292 -3.15386e-19 -0.00190572 9.35556e-18 0.00259187)
(-0.00552376 0.0608571 -1.22163e-18 0.00397804 8.41179e-18 0.00154572)
(-0.0113161 0.0929694 3.54756e-17 0.0108084 -1.03644e-16 0.000507623)
(-0.0190648 0.127608 -1.73265e-16 0.0190213 7.13562e-16 4.34522e-05)
(-0.00961677 0.15411 2.18635e-15 0.0104484 8.15426e-16 -0.000831671)
(-0.0374063 0.261233 4.48555e-15 0.0294102 1.75945e-15 0.00799611)
(0.000306281 -0.00025827 -6.67573e-21 -0.000296873 -1.24806e-20 -9.40792e-06)
(0.000259293 -0.000306127 -1.45514e-20 -0.000248902 -2.33141e-20 -1.03903e-05)
(0.000195898 -0.00034745 2.78032e-20 -0.000182622 4.23104e-20 -1.32767e-05)
(0.000125006 -0.000374246 3.91548e-20 -0.000109123 3.80661e-20 -1.58829e-05)
(5.17526e-05 -0.000382662 4.42421e-21 -3.28673e-05 -1.92298e-21 -1.88853e-05)
(-2.13171e-05 -0.000372964 -1.50213e-20 4.36982e-05 3.69264e-20 -2.23811e-05)
(-8.66983e-05 -0.000347099 2.85005e-19 0.000112619 2.85559e-19 -2.59205e-05)
(-0.000139561 -0.000308092 -2.66784e-19 0.000169021 -3.54286e-19 -2.94605e-05)
(-0.000178434 -0.000260565 7.45775e-20 0.000211704 1.92795e-20 -3.32705e-05)
(-0.000202018 -0.000209912 3.51876e-19 0.000238713 2.60665e-19 -3.66955e-05)
(-0.000211583 -0.000160034 2.76271e-19 0.0002515 2.80604e-19 -3.99167e-05)
(-0.000209296 -0.000114098 2.98973e-19 0.000251831 8.5885e-20 -4.25347e-05)
(-0.000197729 -7.42095e-05 -3.32383e-19 0.000241979 -2.52048e-19 -4.42499e-05)
(-0.000179862 -4.12296e-05 -2.07606e-19 0.000224685 -2.08293e-19 -4.48226e-05)
(-0.000157742 -1.50497e-05 2.27443e-20 0.000202218 -6.94757e-20 -4.44762e-05)
(-0.000133085 7.47437e-06 -5.03093e-19 0.000175246 3.54517e-20 -4.21605e-05)
(-0.000107579 2.66247e-05 -1.37661e-19 0.000145716 -1.74474e-19 -3.81373e-05)
(-8.49782e-05 4.31273e-05 -7.75683e-19 0.000118111 -6.0332e-19 -3.31326e-05)
(-6.17071e-05 5.44166e-05 7.42553e-20 8.66244e-05 -9.99157e-20 -2.49173e-05)
(-4.31856e-05 5.8819e-05 2.71064e-20 5.92553e-05 -6.18587e-20 -1.60697e-05)
(-3.80547e-05 7.08946e-05 -2.56534e-19 4.90389e-05 -3.01742e-21 -1.09842e-05)
(-4.02652e-05 9.37539e-05 4.22843e-20 4.84752e-05 9.34865e-21 -8.20994e-06)
(-3.73477e-05 0.000112295 -2.1361e-19 4.34227e-05 -4.34844e-20 -6.07505e-06)
(-0.000236542 0.00107891 -6.46221e-19 0.000282379 6.94288e-19 -4.58372e-05)
(-0.000584654 0.00632453 1.05039e-18 0.000853 7.11604e-20 -0.000268347)
(0.000521816 0.0132065 1.06585e-17 8.33991e-05 5.68609e-18 -0.000605215)
(0.00137501 0.00721206 -7.74307e-19 -0.000985161 3.20114e-19 -0.000389854)
(0.00206198 0.00295011 1.25398e-18 -0.00172721 7.95938e-20 -0.000334767)
(0.00428894 -0.0100585 3.64959e-17 -0.0037805 2.21298e-18 -0.000508448)
(0.00997351 -0.106237 -9.85404e-18 -0.00873554 1.20258e-16 -0.00123797)
(-6.91371e-05 -0.470531 -5.28677e-16 0.00225176 -5.2153e-16 -0.00218262)
(-0.075508 -1.28185 1.97482e-15 0.0781942 -1.85361e-15 -0.00268626)
(-0.260576 -2.39978 2.16665e-15 0.261469 -2.11281e-16 -0.000893218)
(-0.510167 -3.32043 -3.8738e-16 0.506814 -7.21888e-15 0.0033538)
(-0.711839 -3.70417 -5.80872e-15 0.705906 -1.75921e-15 0.0059325)
(-0.790232 -3.63692 6.98561e-16 0.787669 3.65858e-15 0.00256322)
(-0.799319 -3.4098 -9.94992e-15 0.794648 1.47673e-15 0.00467098)
(-0.573528 -3.01163 -6.98428e-15 0.583808 8.70951e-16 -0.0102798)
(-0.812774 -3.2036 8.11782e-15 0.784444 -4.9516e-15 0.0283292)
(0.000342233 -0.000198544 -3.61144e-21 -0.000335905 -3.70921e-21 -6.32819e-06)
(0.000364731 -0.000135375 1.2884e-20 -0.000359242 5.89846e-20 -5.48862e-06)
(0.000373337 -5.7288e-05 3.82379e-20 -0.000370645 8.49468e-20 -2.6924e-06)
(0.000363963 2.51189e-05 4.11962e-20 -0.000362641 -2.01233e-20 -1.32141e-06)
(0.000332451 0.000105515 -8.18202e-20 -0.000332553 -7.02834e-20 1.02091e-07)
(0.000278593 0.000174389 -9.01605e-21 -0.000278874 -1.00519e-19 2.8098e-07)
(0.000208917 0.000222869 -1.25504e-19 -0.00020866 -1.28909e-19 -2.56827e-07)
(0.000134129 0.000246336 -1.98244e-19 -0.000134157 -7.31978e-21 2.82799e-08)
(6.21186e-05 0.000246792 -5.70513e-20 -6.29226e-05 -3.14884e-20 8.03985e-07)
(-4.50219e-07 0.000226474 6.17163e-20 -6.92498e-07 -4.32095e-20 1.14272e-06)
(-4.59909e-05 0.000192106 6.11364e-20 4.49992e-05 1.40274e-19 9.91662e-07)
(-7.36308e-05 0.000153551 1.1505e-19 7.31159e-05 -4.46255e-20 5.14922e-07)
(-8.6914e-05 0.000117354 -9.83132e-20 8.71647e-05 -1.12802e-19 -2.50738e-07)
(-9.02441e-05 8.64127e-05 -1.85925e-20 9.13622e-05 4.19491e-20 -1.11813e-06)
(-8.73167e-05 6.17756e-05 8.95776e-20 8.93343e-05 -1.95215e-20 -2.01765e-06)
(-8.10772e-05 4.30203e-05 1.96672e-19 8.3899e-05 -1.40262e-20 -2.82186e-06)
(-7.35842e-05 2.93118e-05 -1.23406e-19 7.71362e-05 -3.53728e-20 -3.55198e-06)
(-6.61123e-05 1.94643e-05 -3.74945e-20 7.02664e-05 -5.47196e-20 -4.15409e-06)
(-5.93575e-05 1.23111e-05 -1.74959e-20 6.40046e-05 9.69685e-21 -4.64707e-06)
(-5.34516e-05 6.80027e-06 1.82694e-19 5.84349e-05 -7.22069e-20 -4.98328e-06)
(-4.83446e-05 2.25418e-06 3.30045e-20 5.35906e-05 -4.83554e-20 -5.24603e-06)
(-4.37606e-05 -1.90439e-06 -1.77848e-19 4.92009e-05 5.22252e-20 -5.44033e-06)
(-3.92327e-05 -6.01799e-06 -7.44592e-21 4.48481e-05 2.62867e-20 -5.61539e-06)
(-3.40477e-05 -9.84225e-06 -2.86452e-21 3.97774e-05 -1.75811e-20 -5.72973e-06)
(-2.8414e-05 -1.22459e-05 2.67294e-21 3.44219e-05 -2.18915e-22 -6.00793e-06)
(-2.34558e-05 -1.2996e-05 -1.36227e-19 3.0069e-05 -2.80334e-20 -6.61313e-06)
(-1.95446e-05 -1.28621e-05 -2.41327e-21 2.68426e-05 4.292e-22 -7.29798e-06)
(-1.65193e-05 -1.2351e-05 2.9244e-20 2.44656e-05 7.80909e-22 -7.9463e-06)
(-1.36846e-05 -1.14345e-05 -1.04412e-21 2.18793e-05 -2.50933e-23 -8.19464e-06)
(-1.08663e-05 -1.01976e-05 6.78842e-22 1.87038e-05 9.77154e-22 -7.83747e-06)
(-7.47154e-06 -8.19466e-06 -8.13739e-20 1.38463e-05 -2.94618e-21 -6.37479e-06)
(-4.21618e-06 -5.76438e-06 -2.19235e-21 8.62772e-06 -1.36228e-22 -4.41155e-06)
(-3.03465e-05 -5.73489e-05 3.73276e-21 7.74035e-05 -7.01548e-20 -4.7057e-05)
(-6.05697e-07 -4.58766e-05 1.71892e-17 0.000110297 1.54602e-18 -0.000109691)
(0.000235897 0.000600314 1.09939e-18 -0.000134837 1.22946e-19 -0.00010106)
(0.000879764 0.00332864 -1.87282e-16 -0.000935923 -3.54767e-17 5.61596e-05)
(0.00157693 0.0112287 1.25239e-15 -0.00205596 1.83888e-16 0.000479031)
(0.00672864 0.0279254 4.82762e-17 -0.00721893 -1.76987e-16 0.000490284)
(-0.00280988 0.104518 2.73525e-16 -0.00197397 -1.52057e-15 0.00478385)
(0.000222629 -0.000196166 -8e-21 -0.000225646 -1.18938e-20 3.01666e-06)
(0.000184137 -0.00023166 -1.45997e-20 -0.000188498 -1.9721e-20 4.36127e-06)
(0.000134426 -0.00026128 4.9636e-20 -0.000139262 6.3594e-20 4.83562e-06)
(7.79754e-05 -0.000279213 -2.11739e-19 -8.41414e-05 -2.89711e-19 6.16603e-06)
(1.89049e-05 -0.000283339 5.25436e-20 -2.64556e-05 8.24588e-20 7.55069e-06)
(-4.04716e-05 -0.000273084 1.14585e-19 3.16395e-05 1.19129e-19 8.83201e-06)
(-9.48649e-05 -0.00024917 -9.7762e-20 8.42964e-05 -1.60294e-19 1.05685e-05)
(-0.000140376 -0.000213788 -6.59132e-20 0.000127955 1.13994e-20 1.24205e-05)
(-0.000174766 -0.000169931 -3.93632e-19 0.000160501 -3.72348e-19 1.42653e-05)
(-0.000196702 -0.000121807 -5.50423e-20 0.000180339 -1.4868e-19 1.63633e-05)
(-0.000206297 -7.28558e-05 1.08169e-20 0.00018784 -3.49027e-20 1.84576e-05)
(-0.000204718 -2.62485e-05 -1.96996e-19 0.000184173 -2.5027e-19 2.05455e-05)
(-0.000193981 1.54599e-05 9.43946e-20 0.000171453 1.1325e-19 2.25287e-05)
(-0.000176472 5.07519e-05 -3.87163e-19 0.000152273 -2.01253e-19 2.41993e-05)
(-0.000154509 7.94465e-05 8.43657e-20 0.000128937 4.69933e-20 2.55723e-05)
(-0.000130526 0.000100465 3.68501e-19 0.000104586 3.08337e-19 2.59399e-05)
(-0.000106112 0.000113124 -5.04669e-19 8.13014e-05 -1.43525e-19 2.48109e-05)
(-8.18501e-05 0.000118162 -9.24337e-20 5.91509e-05 4.15481e-19 2.26992e-05)
(-5.95878e-05 0.000117948 -3.12278e-20 3.95311e-05 -5.29389e-20 2.00567e-05)
(-3.90674e-05 0.000110475 -3.68828e-19 2.25596e-05 -5.97008e-20 1.65078e-05)
(-2.24457e-05 9.59657e-05 3.5283e-19 1.04326e-05 2.16495e-19 1.2013e-05)
(-1.15385e-05 7.5388e-05 9.00243e-21 4.35978e-06 -1.30152e-20 7.17877e-06)
(-6.71317e-06 6.9831e-05 1.78541e-19 2.07072e-06 4.97582e-20 4.64245e-06)
(-2.45459e-06 7.97401e-05 1.31626e-19 -1.29226e-06 4.39248e-20 3.74686e-06)
(3.83852e-06 8.6847e-05 -1.27594e-20 -6.82272e-06 -1.20224e-21 2.9842e-06)
(9.52419e-06 8.90344e-05 1.37856e-21 -1.1629e-05 -5.00275e-21 2.10481e-06)
(0.000379715 0.00263666 4.18543e-19 -0.000416039 -1.1591e-19 3.63245e-05)
(0.000534795 0.0032574 -2.43437e-19 -0.000556319 -3.676e-19 2.15237e-05)
(0.00134539 0.0071874 -7.6916e-18 -0.00135801 -3.85485e-19 1.26237e-05)
(0.000787206 0.00345641 4.04022e-19 -0.000780394 2.29781e-20 -6.81214e-06)
(0.00263632 0.00833132 -2.5419e-18 -0.00259253 9.77251e-19 -4.37861e-05)
(0.0104641 0.0123016 -2.1965e-16 -0.0102412 -1.55679e-16 -0.00022287)
(0.0188206 -0.0945885 -8.0787e-17 -0.0180077 -2.49711e-16 -0.000812956)
(-0.024298 -0.571172 -5.39681e-15 0.0262615 5.31781e-16 -0.00196344)
(-0.178757 -1.46785 7.60013e-16 0.180581 2.49575e-15 -0.00182351)
(-0.396358 -2.37583 -8.56658e-19 0.397097 1.31913e-19 -0.000738892)
(-0.582135 -2.94434 -3.33509e-16 0.578208 4.53894e-15 0.0039268)
(-0.523869 -3.07188 1.42658e-16 0.534429 1.91975e-16 -0.0105605)
(-0.771114 -3.38903 -1.32423e-14 0.73372 2.74577e-15 0.0373944)
(0.000253111 -0.00015294 1.41145e-20 -0.00025627 9.06878e-21 3.15861e-06)
(0.000274193 -0.000106609 -3.97488e-20 -0.000275967 -6.40862e-20 1.77356e-06)
(0.000285741 -4.96993e-05 -2.19577e-20 -0.000287361 3.72776e-20 1.61971e-06)
(0.000283489 1.17417e-05 1.06067e-19 -0.000284313 7.79485e-20 8.24123e-07)
(0.000264506 7.30709e-05 -3.95978e-20 -0.000265084 -2.04194e-19 5.77057e-07)
(0.00022809 0.00012751 -7.08452e-20 -0.0002281 4.80093e-20 9.41616e-09)
(0.000178363 0.000168587 1.78808e-19 -0.000178037 1.39205e-19 -3.256e-07)
(0.000122731 0.00019233 -5.94393e-20 -0.000122611 -1.62502e-19 -1.19904e-07)
(6.68012e-05 0.000198837 -1.43185e-19 -6.69806e-05 -6.47439e-20 1.79441e-07)
(1.60192e-05 0.000188967 -1.06527e-19 -1.63587e-05 4.16224e-20 3.39498e-07)
(-2.36204e-05 0.000167079 1.17727e-19 2.33171e-05 4.48982e-21 3.03333e-07)
(-5.04609e-05 0.000139425 -6.73168e-20 5.01818e-05 -6.88186e-20 2.7913e-07)
(-6.58484e-05 0.000111006 -8.61557e-20 6.55181e-05 6.87709e-20 3.30346e-07)
(-7.23396e-05 8.48085e-05 8.34202e-20 7.18732e-05 3.59039e-20 4.6645e-07)
(-7.25472e-05 6.24513e-05 -1.22276e-19 7.1874e-05 2.03927e-20 6.73204e-07)
(-6.88997e-05 4.43467e-05 -3.28398e-20 6.79454e-05 -9.0272e-20 9.54314e-07)
(-6.32457e-05 3.02789e-05 3.6471e-20 6.19823e-05 4.66921e-20 1.26334e-06)
(-5.69308e-05 1.95804e-05 -1.33585e-19 5.53503e-05 6.25408e-21 1.58046e-06)
(-5.07736e-05 1.14679e-05 5.30539e-20 4.88976e-05 -9.48483e-22 1.87594e-06)
(-4.51165e-05 5.14266e-06 -2.02151e-19 4.29653e-05 1.38046e-20 2.15124e-06)
(-4.00266e-05 -1.75718e-08 -2.78645e-20 3.76495e-05 7.59871e-21 2.37703e-06)
(-3.53223e-05 -4.5189e-06 1.61971e-19 3.27544e-05 1.5e-20 2.56787e-06)
(-3.06313e-05 -8.65025e-06 1.55234e-19 2.79126e-05 -3.55415e-20 2.71876e-06)
(-2.5356e-05 -1.22558e-05 -1.2936e-19 2.24369e-05 9.58741e-21 2.91918e-06)
(-1.95072e-05 -1.45466e-05 -1.80466e-21 1.63556e-05 1.07905e-21 3.15162e-06)
(-1.39198e-05 -1.52692e-05 -1.2383e-19 1.058e-05 3.78155e-20 3.33974e-06)
(-9.03452e-06 -1.5017e-05 -2.4445e-21 5.38936e-06 2.64322e-23 3.64516e-06)
(-4.81878e-06 -1.41924e-05 -1.98123e-23 7.49577e-07 -1.03685e-21 4.06921e-06)
(-1.23966e-06 -1.31315e-05 -1.43193e-22 -3.31932e-06 2.8888e-23 4.55898e-06)
(1.63393e-06 -1.12933e-05 4.45357e-20 -6.34986e-06 3.62054e-22 4.71593e-06)
(4.36676e-06 -1.18022e-05 1.65387e-22 -1.00217e-05 -3.5025e-22 5.65489e-06)
(3.22944e-06 -5.83837e-06 4.7638e-23 -6.13042e-06 -8.30565e-25 2.90098e-06)
(1.18664e-05 -1.723e-05 -6.1319e-19 -1.98476e-05 -4.58541e-20 7.98117e-06)
(8.60118e-05 -0.000108026 -4.00244e-18 -0.000127893 -3.41983e-19 4.18816e-05)
(0.000243576 -0.00026553 9.6948e-20 -0.000322372 9.71711e-21 7.87964e-05)
(0.000248978 -0.000202533 -1.8746e-17 -0.00028904 -2.8915e-19 4.00612e-05)
(0.000435066 -0.000155553 3.36721e-18 -0.000470176 -2.50975e-17 3.51107e-05)
(0.000881817 0.000200615 1.37852e-18 -0.000861436 2.72192e-19 -2.03801e-05)
(0.00384315 0.019747 -5.08902e-16 -0.00521966 7.09239e-17 0.00137651)
(0.000184131 -0.000161047 1.57548e-20 -0.000183018 1.84847e-20 -1.11214e-06)
(0.000155874 -0.000189753 -1.18905e-20 -0.000154867 -1.33776e-20 -1.00741e-06)
(0.000118618 -0.000214972 5.03763e-23 -0.000117012 -9.88099e-22 -1.60525e-06)
(7.60746e-05 -0.000232416 -6.79409e-21 -7.41822e-05 6.37169e-21 -1.8924e-06)
(3.10178e-05 -0.000239996 1.51924e-19 -2.87481e-05 1.60428e-19 -2.26974e-06)
(-1.54715e-05 -0.000237335 -9.61133e-20 1.84489e-05 -1.23507e-19 -2.9774e-06)
(-5.93625e-05 -0.000224523 -7.26563e-21 6.29808e-05 3.18496e-20 -3.61835e-06)
(-9.77152e-05 -0.000202644 3.28464e-19 0.000102105 3.16289e-19 -4.39005e-06)
(-0.000128811 -0.000173562 -7.75585e-20 0.000134198 5.60395e-21 -5.38676e-06)