/*--------------------------------*- C++ -*----------------------------------*\
| =========                 |                                                 |
| \\      /  F ield         | OpenFOAM: The Open Source CFD Toolbox           |
|  \\    /   O peration     | Version:  2312                                  |
|   \\  /    A nd           | Website:  www.openfoam.com                      |
|    \\/     M anipulation  |                                                 |
\*---------------------------------------------------------------------------*/
FoamFile
{
    version     2.0;
    format      ascii;
    arch        "LSB;label=32;scalar=64";
    class       volScalarField;
    location    "250";
    object      turbulenceProperties:epsilon;
}
// * * * * * * * * * * * * * * * * * * * * * * * * * * * * * * * * * * * * * //

dimensions      [0 2 -3 0 0 0 0];

internalField   nonuniform List<scalar> 
10720
(
0.259462
0.340212
0.453134
0.623777
0.84046
1.13518
1.5312
2.03547
2.6847
3.51526
4.57884
5.96552
7.80353
10.2925
13.7728
18.7607
26.2381
37.3624
56.0393
83.0636
139.588
212.002
435.015
740.396
738.759
670.038
640.161
640.238
646.136
642.334
625.46
595.737
550.631
491.438
418.465
336.135
233.91
146.91
16.5655
0.194205
0.147136
0.100409
0.0667001
0.0405682
0.0221872
0.0111868
0.00631522
0.00684877
0.012246
0.0258714
0.0541927
0.107106
0.197591
0.34
0.55348
0.870047
1.35245
2.12116
3.40113
5.64516
9.71144
17.6405
33.2227
67.6528
140.824
318.93
663.176
944.921
1066.8
1100.06
1101.62
1088.02
1062.27
1025.28
978.802
912.731
836.749
619.124
0.00736141
0.00728034
0.00711467
0.00670984
0.00610658
0.00544805
0.00471927
0.0039622
0.00327815
0.00267042
0.00214894
0.00182019
0.00177318
0.00210583
0.00330859
0.00671386
0.016559
0.0442098
0.138879
0.449555
1.75446
6.2457
23.4249
83.5883
165.999
234.351
277.301
284.121
250.402
192.901
135.779
91.8682
63.4722
45.6993
34.2479
26.4878
21.7373
17.5917
20.1868
0.00722782
0.00703222
0.00664172
0.00608336
0.00535992
0.00447644
0.00354155
0.0027396
0.00209105
0.00153422
0.00108415
0.000757351
0.000526703
0.000363699
0.000249021
0.000169112
0.000113305
7.46668e-05
4.72722e-05
2.75631e-05
1.31752e-05
4.21548e-06
4.00614e-07
6.78897e-09
5.53339e-08
0.000986108
0.00606348
0.0512786
0.170757
0.319777
0.466674
0.615364
0.77384
0.946766
1.13459
1.34811
1.59565
2.20845
4.1017
0.0033026
0.0032505
0.00310537
0.00289001
0.00267305
0.00244441
0.00222368
0.00203405
0.00187765
0.00176055
0.00167242
0.00162262
0.00160893
0.00163543
0.00164501
0.00155103
0.00112294
0.000894916
7.49665e-05
5.24356e-12
0.0272196
0.000253161
0.00151097
0.0209313
0.487049
2.44988
7.65362
19.7318
41.7336
69.7675
90.8716
93.7477
79.8537
60.571
44.1085
31.9248
23.9597
16.9276
20.4724
0.00335442
0.0033464
0.00332886
0.00321168
0.0030087
0.00268265
0.00226357
0.00182836
0.00146542
0.00113396
0.000824719
0.000572085
0.000385053
0.000253572
0.000165645
0.000108261
7.19689e-05
4.93658e-05
3.55921e-05
2.70831e-05
2.18923e-05
1.88141e-05
1.72134e-05
1.6358e-05
1.6297e-05
1.61098e-05
1.8221e-05
6.37006e-06
0.000167438
0.000991909
0.00208796
0.00364328
0.00959452
0.0265288
0.059846
0.110631
0.177002
0.222095
0.549985
0.00235433
0.00236408
0.00234039
0.00230157
0.00222249
0.00210735
0.00196809
0.00180091
0.00161893
0.00142892
0.00123798
0.00105128
0.000872816
0.000707422
0.000557531
0.000419366
0.000300292
0.000217157
0.000128211
3.82764e-05
3.97156e-07
3.33557e-06
0
0.00644142
0.0328914
0.0535333
0.0195135
0.00372231
0.0157203
0.424858
3.13123
11.4138
24.6676
35.1365
36.9484
32.2649
26.5179
19.722
21.4296
0.00230408
0.00222901
0.00211365
0.00197879
0.00181598
0.00161337
0.00139196
0.00117429
0.000967337
0.000765428
0.000581544
0.00043205
0.000318414
0.000234364
0.000173367
0.000129303
9.78856e-05
7.5524e-05
5.96714e-05
4.81433e-05
3.96863e-05
3.32139e-05
2.79028e-05
2.28163e-05
1.81232e-05
1.46326e-05
1.22435e-05
1.06558e-05
8.88502e-06
6.82987e-06
3.87271e-06
1.53786e-06
2.28414e-05
1.5144e-05
6.82061e-05
0.000863127
0.00494284
0.0189611
0.13985
0.00132499
0.00132031
0.00129975
0.00126352
0.00120847
0.00113579
0.00105095
0.000956866
0.000858183
0.000761925
0.000671452
0.000590045
0.000520333
0.000462987
0.00041783
0.000381659
0.000345267
0.000302358
0.000261839
0.000207039
0.000137543
4.64002e-05
3.20573e-07
1.68761e-08
0
0
0.0116496
0.0144129
0.0311891
0.0132293
0.0237232
0.0163779
0.159022
2.33632
8.88121
16.6731
20.8364
19.6684
21.7501
0.00131814
0.00129957
0.00126297
0.00120545
0.00112663
0.00101951
0.000898364
0.000776806
0.000656936
0.00053692
0.000424902
0.000327962
0.000248334
0.000184981
0.000136074
9.92792e-05
7.22725e-05
5.28663e-05
3.91673e-05
2.9516e-05
2.27186e-05
1.78334e-05
1.41674e-05
1.10635e-05
8.302e-06
6.1034e-06
4.59794e-06
3.68259e-06
3.31141e-06
2.83199e-06
4.16995e-06
2.07709e-07
8.54356e-06
5.12888e-05
0.000109943
7.94619e-05
9.20951e-05
0.000241245
0.0151015
0.000890243
0.000897848
0.00089712
0.00089072
0.000873304
0.000845446
0.00080884
0.000762713
0.000708894
0.000649753
0.000586738
0.000522224
0.000458445
0.000397025
0.000339336
0.000284326
0.000229895
0.000180073
0.000139297
0.000106699
8.65606e-05
6.74628e-05
4.95028e-05
5.99784e-06
6.43592e-08
1.15992e-08
1.23058e-09
0
0
0.00109558
0.00591287
0.0328478
0.00473394
0.0419579
0.0422587
1.59009
7.34835
13.8254
19.744
0.000874184
0.000852229
0.000820789
0.000780207
0.000729629
0.000665723
0.000595794
0.000525076
0.000453253
0.000380001
0.000310201
0.000247754
0.00019456
0.000150776
0.0001158
8.86107e-05
6.79272e-05
5.24629e-05
4.10329e-05
3.25812e-05
2.6272e-05
2.14153e-05
1.74714e-05
1.39453e-05
1.07042e-05
8.01612e-06
5.98829e-06
4.51815e-06
3.44461e-06
2.66268e-06
2.07275e-06
1.60327e-06
1.03391e-06
5.09863e-07
9.88494e-11
7.30748e-06
1.15046e-05
4.85486e-05
0.00112255
0.000582562
0.000587689
0.000588508
0.00058553
0.000576237
0.000560323
0.00053844
0.000510341
0.000476801
0.000439335
0.000399173
0.000357866
0.000317093
0.00027823
0.000242207
0.000210041
0.00018286
0.000159223
0.000136836
0.000115207
9.56976e-05
8.01193e-05
7.22244e-05
5.47256e-05
2.56577e-05
7.46399e-06
6.07198e-07
1.54502e-08
3.92475e-09
1.85443e-11
0
0
0.00029605
0.0171576
0.0113552
0.0342303
0.389086
4.76907
13.9308
0.000573035
0.000560257
0.000541927
0.000517187
0.00048595
0.000447295
0.000405766
0.000362804
0.000318276
0.000272799
0.000228777
0.000188213
0.000152283
0.000121407
9.5617e-05
7.46449e-05
5.79652e-05
4.49746e-05
3.5025e-05
2.74562e-05
2.16994e-05
1.72553e-05
1.37049e-05
1.06781e-05
8.02535e-06
5.86069e-06
4.23829e-06
3.07613e-06
2.25041e-06
1.67479e-06
1.29979e-06
1.08136e-06
9.59357e-07
7.85539e-07
4.389e-07
4.8853e-09
8.11964e-10
7.19835e-13
2.46238e-05
0.000400198
0.000405681
0.000408953
0.000410275
0.000408032
0.000401933
0.000392306
0.000378591
0.000361012
0.000340222
0.00031652
0.000290727
0.000263698
0.000236191
0.000208958
0.000182738
0.000157374
0.00013249
0.000109478
8.97617e-05
7.37757e-05
6.19231e-05
5.41462e-05
4.9521e-05
4.17069e-05
3.00323e-05
1.77164e-05
7.78279e-06
2.63343e-06
1.01268e-08
3.73293e-09
3.90673e-12
0
0
0.00100073
0.0232529
0.0269693
0.437879
6.23598
0.000392031
0.000382301
0.000369449
0.000352732
0.000332327
0.000307885
0.000282249
0.000255282
0.000227004
0.000198202
0.000169915
0.000143268
0.000118978
9.74122e-05
7.8781e-05
6.31279e-05
5.02652e-05
3.99377e-05
3.1794e-05
2.543e-05
2.04545e-05
1.65124e-05
1.32897e-05
1.05127e-05
8.06745e-06
6.03553e-06
4.46321e-06
3.29026e-06
2.41586e-06
1.76367e-06
1.2848e-06
9.34959e-07
6.79511e-07
4.93331e-07
3.83113e-07
3.16045e-07
1.8029e-07
1.14189e-09
1.57379e-07
0.000278479
0.000282885
0.000286118
0.000288145
0.000288071
0.000285603
0.000280831
0.000273293
0.000263043
0.000250332
0.000235321
0.000218457
0.000200283
0.000181328
0.000162211
0.000143402
0.000125433
0.000109
9.4079e-05
8.05863e-05
6.86272e-05
5.84953e-05
5.01733e-05
4.35691e-05
3.742e-05
3.04639e-05
2.36895e-05
1.76073e-05
1.24536e-05
6.50208e-06
2.7486e-06
3.42499e-09
1.06246e-09
0
0
0
0.00930374
0.0248906
1.46057
0.000272496
0.000265652
0.000256936
0.000245586
0.00023209
0.000216305
0.000199913
0.000182511
0.000164193
0.00014558
0.000127144
0.000109472
9.29803e-05
7.79199e-05
6.44936e-05
5.28223e-05
4.29025e-05
3.4652e-05
2.79167e-05
2.24865e-05
1.8127e-05
1.46013e-05
1.1688e-05
9.19805e-06
7.04223e-06
5.25548e-06
3.86719e-06
2.83048e-06
2.06345e-06
1.49943e-06
1.09325e-06
8.11567e-07
6.24911e-07
5.09018e-07
4.46982e-07
4.54336e-07
5.27535e-07
5.9157e-07
3.87014e-10
0.000197917
0.000201561
0.000204625
0.000207012
0.000208127
0.000207838
0.000206108
0.000202575
0.000197231
0.000190144
0.000181304
0.00017093
0.000159293
0.000146685
0.000133467
0.000119977
0.00010662
9.34831e-05
8.07605e-05
6.90408e-05
5.88582e-05
5.04243e-05
4.35298e-05
3.74963e-05
3.15965e-05
2.55772e-05
2.01015e-05
1.57995e-05
1.27398e-05
1.04457e-05
8.42982e-06
4.51605e-06
8.27325e-07
3.89888e-09
8.88525e-16
0
9.92982e-06
0.00322868
0.181658
0.000193301
0.00018828
0.000182114
0.000174168
0.000165
0.000154599
0.000143785
0.000132272
0.000120213
0.000107972
9.57783e-05
8.39481e-05
7.26952e-05
6.21671e-05
5.25351e-05
4.39214e-05
3.63729e-05
2.99076e-05
2.447e-05
1.99618e-05
1.62511e-05
1.31865e-05
1.06179e-05
8.41652e-06
6.51205e-06
4.92307e-06
3.66941e-06
2.71609e-06
1.99827e-06
1.46015e-06
1.06272e-06
7.75105e-07
5.6974e-07
4.3048e-07
3.41077e-07
3.24503e-07
3.15902e-07
8.77143e-07
1.32817e-07
0.00014267
0.000145568
0.000148191
0.000150424
0.000151863
0.000152459
0.000152105
0.000150579
0.000147798
0.000143782
0.000138461
0.000131932
0.000124328
0.000115807
0.000106609
9.69878e-05
8.71927e-05
7.75306e-05
6.82709e-05
5.96114e-05
5.17997e-05
4.49655e-05
3.90725e-05
3.37265e-05
2.83875e-05
2.29387e-05
1.78846e-05
1.38647e-05
1.09995e-05
9.10405e-06
7.79528e-06
7.03353e-06
5.37994e-06
2.04864e-06
7.9712e-13
7.70478e-20
0
0.000750739
0.026791
0.000139161
0.000135473
0.000131083
0.00012544
0.00011909
0.000112102
0.000104792
9.70144e-05
8.89481e-05
8.07805e-05
7.26047e-05
6.46011e-05
5.68825e-05
4.95257e-05
4.26333e-05
3.63067e-05
3.06051e-05
2.55726e-05
2.12167e-05
1.75021e-05
1.43621e-05
1.17118e-05
9.45811e-06
7.51705e-06
5.84174e-06
4.44047e-06
3.32366e-06
2.46547e-06
1.81546e-06
1.32751e-06
9.67803e-07
7.09654e-07
5.30026e-07
4.12458e-07
3.40567e-07
3.3206e-07
3.29381e-07
6.60184e-07
1.03007e-06
0.00010424
0.000106549
0.000108741
0.00011071
0.000112201
0.000113176
0.000113554
0.000113152
0.00011191
0.000109807
0.000106765
0.000102813
9.80035e-05
9.24133e-05
8.61736e-05
7.94397e-05
7.23946e-05
6.52557e-05
5.81368e-05
5.1243e-05
4.48854e-05
3.92398e-05
3.4289e-05
2.97671e-05
2.52717e-05
2.06782e-05
1.63338e-05
1.27343e-05
1.00417e-05
8.10858e-06
6.6784e-06
5.81967e-06
5.3457e-06
5.13218e-06
2.25825e-06
3.17418e-09
0
0.000102965
0.00826127
0.000101556
9.87959e-05
9.56206e-05
9.15595e-05
8.70854e-05
8.22893e-05
7.72505e-05
7.19073e-05
6.64292e-05
6.08937e-05
5.53484e-05
4.98878e-05
4.45636e-05
3.94034e-05
3.44795e-05
2.9857e-05
2.55818e-05
2.17066e-05
1.82558e-05
1.52351e-05
1.26209e-05
1.03689e-05
8.42249e-06
6.73165e-06
5.27067e-06
4.04183e-06
3.05128e-06
2.28001e-06
1.68936e-06
1.24178e-06
9.08189e-07
6.65575e-07
4.93079e-07
3.76599e-07
3.03449e-07
2.85736e-07
2.92149e-07
4.82595e-07
1.23144e-06
7.70161e-05
7.88441e-05
8.06374e-05
8.23073e-05
8.36799e-05
8.47364e-05
8.54201e-05
8.55836e-05
8.51755e-05
8.41689e-05
8.2487e-05
8.01316e-05
7.71103e-05
7.34478e-05
6.92219e-05
6.45275e-05
5.9478e-05
5.42428e-05
4.89517e-05
4.37439e-05
3.88076e-05
3.42815e-05
3.01718e-05
2.63344e-05
2.25236e-05
1.86527e-05
1.49637e-05
1.18308e-05
9.41327e-06
7.5998e-06
6.20178e-06
5.14747e-06
4.44786e-06
4.18044e-06
4.64671e-06
1.31746e-06
1.45701e-13
3.05866e-05
0.00276072
7.49634e-05
7.28806e-05
7.05495e-05
6.75994e-05
6.44034e-05
6.1046e-05
5.75148e-05
5.37894e-05
5.00149e-05
4.62179e-05
4.2414e-05
3.86512e-05
3.49536e-05
3.13297e-05
2.78099e-05
2.44394e-05
2.12526e-05
1.82926e-05
1.55885e-05
1.31584e-05
1.10033e-05
9.10631e-06
7.44008e-06
5.97969e-06
4.7121e-06
3.64e-06
2.76647e-06
2.07815e-06
1.54597e-06
1.13982e-06
8.35407e-07
6.1317e-07
4.55305e-07
3.48972e-07
2.82602e-07
2.6437e-07
2.71934e-07
4.09134e-07
1.04008e-06
5.74692e-05
5.89113e-05
6.03651e-05
6.1754e-05
6.29586e-05
6.39778e-05
6.47575e-05
6.51901e-05
6.52399e-05
6.4872e-05
6.40272e-05
6.26863e-05
6.08463e-05
5.85083e-05
5.57047e-05
5.24872e-05
4.89239e-05
4.51353e-05
4.12102e-05
3.72386e-05
3.33639e-05
2.97289e-05
2.63523e-05
2.31481e-05
1.99597e-05
1.67272e-05
1.36213e-05
1.09275e-05
8.79613e-06
7.16119e-06
5.88495e-06
4.87265e-06
4.09714e-06
3.54797e-06
3.46375e-06
4.98191e-06
3.07139e-09
5.24406e-07
0.000688582
5.58848e-05
5.43063e-05
5.25688e-05
5.04056e-05
4.80967e-05
4.57029e-05
4.31874e-05
4.05631e-05
3.79268e-05
3.52888e-05
3.265e-05
3.00377e-05
2.74556e-05
2.48979e-05
2.23833e-05
1.99323e-05
1.75661e-05
1.53193e-05
1.32184e-05
1.12841e-05
9.52667e-06
7.94718e-06
6.53688e-06
5.28835e-06
4.19776e-06
3.26825e-06
2.50296e-06
1.89244e-06
1.4153e-06
1.048e-06
7.70453e-07
5.66148e-07
4.19568e-07
3.19524e-07
2.55946e-07
2.35734e-07
2.39961e-07
3.50634e-07
8.41856e-07
4.32544e-05
4.43891e-05
4.55624e-05
4.66988e-05
4.7725e-05
4.86474e-05
4.94116e-05
4.99462e-05
5.02242e-05
5.02112e-05
4.9862e-05
4.91564e-05
4.80763e-05
4.66127e-05
4.47737e-05
4.25895e-05
4.01018e-05
3.73794e-05
3.45021e-05
3.1531e-05
2.8548e-05
2.5676e-05
2.29402e-05
2.02932e-05
1.76435e-05
1.4955e-05
1.2349e-05
1.00427e-05
8.1715e-06
6.70824e-06
5.55452e-06
4.63922e-06
3.90573e-06
3.39009e-06
2.76054e-06
4.17026e-06
1.04958e-06
4.1888e-11
4.04116e-05
4.20233e-05
4.08193e-05
3.95126e-05
3.79085e-05
3.62232e-05
3.44892e-05
3.26755e-05
3.08044e-05
2.89422e-05
2.70886e-05
2.5241e-05
2.34098e-05
2.15938e-05
1.9783e-05
1.79817e-05
1.62018e-05
1.44531e-05
1.27572e-05
1.11355e-05
9.60805e-06
8.19035e-06
6.89052e-06
5.70984e-06
4.64999e-06
3.71665e-06
2.91568e-06
2.24937e-06
1.71132e-06
1.28626e-06
9.56147e-07
7.0474e-07
5.18357e-07
3.8383e-07
2.91447e-07
2.32143e-07
2.11378e-07
2.12891e-07
3.0008e-07
6.8491e-07
3.2801e-05
3.3697e-05
3.46389e-05
3.5562e-05
3.64239e-05
3.72265e-05
3.79292e-05
3.8479e-05
3.88562e-05
3.90328e-05
3.8971e-05
3.8651e-05
3.80567e-05
3.71711e-05
3.59981e-05
3.45445e-05
3.28331e-05
3.09016e-05
2.88151e-05
2.66059e-05
2.43248e-05
2.20705e-05
1.98748e-05
1.77149e-05
1.55344e-05
1.33144e-05
1.11429e-05
9.18361e-06
7.5531e-06
6.25066e-06
5.20935e-06
4.38076e-06
3.71052e-06
3.24847e-06
2.70348e-06
2.74786e-06
3.884e-06
6.39975e-12
2.91812e-07
3.18438e-05
3.09154e-05
2.99257e-05
2.87255e-05
2.74838e-05
2.62108e-05
2.48867e-05
2.35384e-05
2.22077e-05
2.08915e-05
1.95844e-05
1.82922e-05
1.70078e-05
1.57188e-05
1.44266e-05
1.31322e-05
1.1842e-05
1.05678e-05
9.32473e-06
8.12902e-06
6.99518e-06
5.93501e-06
4.95551e-06
4.06536e-06
3.27365e-06
2.58804e-06
2.01139e-06
1.54016e-06
1.16375e-06
8.68664e-07
6.42013e-07
4.72614e-07
3.49343e-07
2.63862e-07
2.08208e-07
1.86735e-07
1.8601e-07
2.53717e-07
5.5659e-07
2.50391e-05
2.57489e-05
2.65016e-05
2.72502e-05
2.79645e-05
2.86477e-05
2.9269e-05
2.9789e-05
3.01904e-05
3.04538e-05
3.05494e-05
3.04599e-05
3.01725e-05
2.96684e-05
2.89423e-05
2.79942e-05
2.68338e-05
2.54813e-05
2.39827e-05
2.23593e-05
2.06389e-05
1.88906e-05
1.7149e-05
1.54066e-05
1.363e-05
1.18096e-05
1.00113e-05
8.3584e-06
6.94902e-06
5.79823e-06
4.86392e-06
4.11104e-06
3.50522e-06
3.04999e-06
2.72017e-06
2.12307e-06
4.51552e-06
8.3998e-11
1.24236e-17
2.42942e-05
2.35748e-05
2.28167e-05
2.19122e-05
2.09888e-05
2.00431e-05
1.90666e-05
1.80853e-05
1.71248e-05
1.61805e-05
1.52479e-05
1.43272e-05
1.34116e-05
1.24905e-05
1.15601e-05
1.06194e-05
9.66827e-06
8.7146e-06
7.76683e-06
6.83743e-06
5.93852e-06
5.0813e-06
4.27578e-06
3.53377e-06
2.86711e-06
2.28379e-06
1.78796e-06
1.37793e-06
1.04668e-06
7.84458e-07
5.81269e-07
4.28117e-07
3.15797e-07
2.37224e-07
1.85417e-07
1.63708e-07
1.61204e-07
2.13008e-07
4.4956e-07
1.92272e-05
1.97896e-05
2.03904e-05
2.0997e-05
2.15828e-05
2.21577e-05
2.26929e-05
2.31614e-05
2.355e-05
2.3844e-05
2.40193e-05
2.40644e-05
2.39635e-05
2.37022e-05
2.32735e-05
2.26726e-05
2.19027e-05
2.0971e-05
1.99079e-05
1.87278e-05
1.74452e-05
1.61022e-05
1.47358e-05
1.33462e-05
1.19129e-05
1.04323e-05
8.95371e-06
7.56986e-06
6.36207e-06
5.35388e-06
4.52245e-06
3.84141e-06
3.29503e-06
2.85219e-06
2.61078e-06
2.01502e-06
3.32246e-06
5.01329e-07
9.03763e-11
1.86447e-05
1.8085e-05
1.75002e-05
1.6813e-05
1.61211e-05
1.5411e-05
1.46842e-05
1.39629e-05
1.32625e-05
1.25784e-05
1.19067e-05
1.12461e-05
1.05894e-05
9.92697e-06
9.25483e-06
8.56948e-06
7.86883e-06
7.15645e-06
6.43712e-06
5.71864e-06
5.01114e-06
4.32474e-06
3.66879e-06
3.05496e-06
2.49656e-06
2.00366e-06
1.58018e-06
1.22575e-06
9.36082e-07
7.04434e-07
5.23271e-07
3.85474e-07
2.83579e-07
2.11611e-07
1.63525e-07
1.41849e-07
1.37954e-07
1.77359e-07
3.6052e-07
1.48419e-05
1.5287e-05
1.57685e-05
1.62569e-05
1.67371e-05
1.7215e-05
1.76703e-05
1.80795e-05
1.84365e-05
1.87278e-05
1.89356e-05
1.90495e-05
1.90591e-05
1.89505e-05
1.87181e-05
1.83534e-05
1.78556e-05
1.72273e-05
1.64834e-05
1.56363e-05
1.46913e-05
1.36714e-05
1.26118e-05
1.15164e-05
1.03718e-05
9.17731e-06
7.97032e-06
6.82073e-06
5.7947e-06
4.91927e-06
4.1854e-06
3.57508e-06
3.08097e-06
2.67284e-06
2.42258e-06
2.03889e-06
2.27125e-06
2.0322e-06
2.50158e-08
1.43845e-05
1.39469e-05
1.34931e-05
1.29683e-05
1.24442e-05
1.19073e-05
1.13615e-05
1.08267e-05
1.03111e-05
9.81121e-06
9.32321e-06
8.84495e-06
8.37057e-06
7.89146e-06
7.40357e-06
6.90322e-06
6.38686e-06
5.85531e-06
5.31108e-06
4.75915e-06
4.20579e-06
3.65925e-06
3.12841e-06
2.62511e-06
2.16182e-06
1.74809e-06
1.38853e-06
1.08399e-06
8.32205e-07
6.2874e-07
4.68095e-07
3.44755e-07
2.52788e-07
1.87193e-07
1.42806e-07
1.21502e-07
1.16581e-07
1.46326e-07
2.86952e-07
1.15099e-05
1.1863e-05
1.22484e-05
1.26423e-05
1.30338e-05
1.34292e-05
1.38108e-05
1.41629e-05
1.44796e-05
1.4751e-05
1.49638e-05
1.51104e-05
1.51819e-05
1.51679e-05
1.50609e-05
1.48544e-05
1.45443e-05
1.41303e-05
1.36174e-05
1.30177e-05
1.2331e-05
1.15665e-05
1.07538e-05
9.89953e-06
8.99458e-06
8.0394e-06
7.06188e-06
6.11451e-06
5.25037e-06
4.49695e-06
3.85425e-06
3.3124e-06
2.86586e-06
2.501e-06
2.22979e-06
2.00636e-06
1.78786e-06
2.29972e-06
5.20015e-07
1.11497e-05
1.0806e-05
1.04525e-05
1.00497e-05
9.64853e-06
9.23977e-06
8.82712e-06
8.42669e-06
8.04379e-06
7.67522e-06
7.31763e-06
6.96877e-06
6.62341e-06
6.27503e-06
5.91939e-06
5.55274e-06
5.17172e-06
4.77556e-06
4.3646e-06
3.94178e-06
3.51166e-06
3.0799e-06
2.65358e-06
2.2435e-06
1.86144e-06
1.51625e-06
1.21286e-06
9.52861e-07
7.35393e-07
5.5775e-07
4.16099e-07
3.06271e-07
2.23675e-07
1.64158e-07
1.23391e-07
1.02731e-07
9.71112e-08
1.19557e-07
2.26912e-07
8.96281e-06
9.24388e-06
9.55226e-06
9.8697e-06
1.01883e-05
1.05137e-05
1.08311e-05
1.11298e-05
1.1405e-05
1.16489e-05
1.18519e-05
1.20079e-05
1.211e-05
1.21498e-05
1.21213e-05
1.20182e-05
1.18356e-05
1.15715e-05
1.12265e-05
1.08103e-05
1.03184e-05
9.75301e-06
9.13708e-06
8.47836e-06
7.77039e-06
7.01327e-06
6.2279e-06
5.45348e-06
4.73205e-06
4.08948e-06
3.53127e-06
3.0541e-06
2.65301e-06
2.32771e-06
2.0573e-06
1.89357e-06
1.60965e-06
1.87227e-06
1.26557e-06
8.67862e-06
8.40767e-06
8.13124e-06
7.82038e-06
7.51102e-06
7.19741e-06
6.88336e-06
6.58142e-06
6.29472e-06
6.02062e-06
5.75603e-06
5.49918e-06
5.24611e-06
4.99105e-06
4.73057e-06
4.46095e-06
4.17901e-06
3.88362e-06
3.57404e-06
3.25133e-06
2.91805e-06
2.57876e-06
2.2389e-06
1.90713e-06
1.59374e-06
1.30748e-06
1.05315e-06
8.32579e-07
6.45895e-07
4.91695e-07
3.67469e-07
2.70176e-07
1.96361e-07
1.4262e-07
1.05396e-07
8.56397e-08
7.9616e-08
9.6573e-08
1.78145e-07
7.00518e-06
7.22904e-06
7.47649e-06
7.73185e-06
7.9911e-06
8.25771e-06
8.52051e-06
8.77146e-06
9.0069e-06
9.22101e-06
9.40608e-06
9.55811e-06
9.67173e-06
9.74006e-06
9.75895e-06
9.7219e-06
9.62486e-06
9.46495e-06
9.23987e-06
8.95616e-06
8.60904e-06
8.19715e-06
7.73638e-06
7.23413e-06
6.68643e-06
6.09224e-06
5.46664e-06
4.83899e-06
4.24213e-06
3.69904e-06
3.21845e-06
2.80139e-06
2.4446e-06
2.15288e-06
1.90086e-06
1.74302e-06
1.51783e-06
1.48764e-06
1.46235e-06
6.78074e-06
6.56604e-06
6.34905e-06
6.10794e-06
5.86804e-06
5.62607e-06
5.3855e-06
5.156e-06
4.93952e-06
4.73373e-06
4.5367e-06
4.34632e-06
4.15925e-06
3.97111e-06
3.77901e-06
3.58003e-06
3.37098e-06
3.15033e-06
2.91705e-06
2.67127e-06
2.41434e-06
2.14889e-06
1.87914e-06
1.61221e-06
1.35704e-06
1.12122e-06
9.09202e-07
7.23164e-07
5.63817e-07
4.30711e-07
3.22355e-07
2.36632e-07
1.70987e-07
1.22703e-07
8.89142e-08
7.02738e-08
6.41309e-08
7.70352e-08
1.3888e-07
5.49329e-06
5.67197e-06
5.87034e-06
6.07604e-06
6.28673e-06
6.50453e-06
6.72138e-06
6.93045e-06
7.12989e-06
7.31453e-06
7.4791e-06
7.62026e-06
7.73416e-06
7.81529e-06
7.86018e-06
7.86395e-06
7.82256e-06
7.73298e-06
7.59207e-06
7.40348e-06
7.16348e-06
6.86871e-06
6.52874e-06
6.15056e-06
5.73155e-06
5.26979e-06
4.77587e-06
4.27165e-06
3.78234e-06
3.32767e-06
2.91755e-06
2.55576e-06
2.24126e-06
1.97937e-06
1.75185e-06
1.58935e-06
1.42081e-06
1.25761e-06
1.3163e-06
5.31568e-06
5.14523e-06
4.9742e-06
4.7862e-06
4.59915e-06
4.41155e-06
4.22596e-06
4.05041e-06
3.88575e-06
3.73013e-06
3.58187e-06
3.43953e-06
3.30018e-06
3.1606e-06
3.01831e-06
2.87053e-06
2.71491e-06
2.5499e-06
2.37408e-06
2.18704e-06
1.98939e-06
1.78263e-06
1.56966e-06
1.35613e-06
1.14944e-06
9.56241e-07
7.80421e-07
6.24377e-07
4.89152e-07
3.74914e-07
2.80915e-07
2.0577e-07
1.47673e-07
1.0451e-07
7.40289e-08
5.66653e-08
5.06199e-08
6.05893e-08
1.07553e-07
4.32061e-06
4.46332e-06
4.62241e-06
4.78842e-06
4.95911e-06
5.1369e-06
5.31505e-06
5.48861e-06
5.6558e-06
5.81325e-06
5.95645e-06
6.08348e-06
6.19077e-06
6.27489e-06
6.33276e-06
6.36028e-06
6.35423e-06
6.3114e-06
6.22898e-06
6.10821e-06
5.94629e-06
5.7397e-06
5.49254e-06
5.21158e-06
4.89455e-06
4.53927e-06
4.15293e-06
3.75154e-06
3.35403e-06
2.977e-06
2.63019e-06
2.31896e-06
2.04396e-06
1.80997e-06
1.60611e-06
1.445e-06
1.30454e-06
1.11452e-06
1.11453e-06
4.17946e-06
4.04428e-06
3.90889e-06
3.76172e-06
3.61524e-06
3.469e-06
3.32509e-06
3.18975e-06
3.06354e-06
2.94491e-06
2.83267e-06
2.72545e-06
2.62096e-06
2.51648e-06
2.41015e-06
2.29993e-06
2.18368e-06
2.05994e-06
1.9273e-06
1.78511e-06
1.63339e-06
1.47286e-06
1.30539e-06
1.13531e-06
9.68644e-07
8.11028e-07
6.66129e-07
5.35955e-07
4.21829e-07
3.24319e-07
2.43198e-07
1.77656e-07
1.26501e-07
8.81162e-08
6.07853e-08
4.48107e-08
3.90461e-08
4.68802e-08
8.26969e-08
3.40734e-06
3.52144e-06
3.6491e-06
3.78318e-06
3.92143e-06
4.06635e-06
4.21234e-06
4.35568e-06
4.49524e-06
4.62809e-06
4.75116e-06
4.86284e-06
4.96056e-06
5.04178e-06
5.10383e-06
5.14398e-06
5.15916e-06
5.14664e-06
5.10392e-06
5.03044e-06
4.92501e-06
4.7833e-06
4.60645e-06
4.40052e-06
4.16392e-06
3.89375e-06
3.59461e-06
3.27803e-06
2.95817e-06
2.64834e-06
2.35778e-06
2.09226e-06
1.85366e-06
1.6463e-06
1.46372e-06
1.31077e-06
1.18083e-06
1.00279e-06
9.45402e-07
3.29497e-06
3.18752e-06
3.08002e-06
2.96444e-06
2.8493e-06
2.73468e-06
2.62262e-06
2.51774e-06
2.42032e-06
2.32926e-06
2.24355e-06
2.16202e-06
2.0829e-06
2.00428e-06
1.92447e-06
1.84172e-06
1.75443e-06
1.66133e-06
1.56116e-06
1.45296e-06
1.33657e-06
1.21217e-06
1.08097e-06
9.46092e-07
8.12404e-07
6.84446e-07
5.65551e-07
4.57494e-07
3.61676e-07
2.78853e-07
2.09197e-07
1.52322e-07
1.07499e-07
7.35434e-08
4.91865e-08
3.46621e-08
2.93102e-08
3.56274e-08
6.31805e-08
2.69346e-06
2.78491e-06
2.88746e-06
2.99561e-06
3.10766e-06
3.22556e-06
3.345e-06
3.46291e-06
3.57887e-06
3.69021e-06
3.79487e-06
3.89148e-06
3.97839e-06
4.05332e-06
4.1146e-06
4.16003e-06
4.18705e-06
4.19341e-06
4.17681e-06
4.13595e-06
4.07043e-06
3.97634e-06
3.85241e-06
3.70405e-06
3.52972e-06
3.32649e-06
3.09707e-06
2.84969e-06
2.59483e-06
2.34269e-06
2.10145e-06
1.87683e-06
1.67149e-06
1.489e-06
1.326e-06
1.18432e-06
1.06008e-06
9.00042e-07
8.11416e-07
2.60405e-06
2.5184e-06
2.43278e-06
2.34177e-06
2.25096e-06
2.16076e-06
2.07312e-06
1.99132e-06
1.9157e-06
1.84529e-06
1.7794e-06
1.71698e-06
1.65667e-06
1.59695e-06
1.53659e-06
1.47419e-06
1.40836e-06
1.338e-06
1.26212e-06
1.17981e-06
1.09056e-06
9.94285e-07
8.91643e-07
7.84983e-07
6.78097e-07
5.74771e-07
4.7763e-07
3.88389e-07
3.0834e-07
2.38348e-07
1.78845e-07
1.29736e-07
9.06449e-08
6.07694e-08
3.92061e-08
2.61498e-08
2.12978e-08
2.65257e-08
4.79632e-08
2.13372e-06
2.20708e-06
2.28958e-06
2.37679e-06
2.46753e-06
2.56341e-06
2.66086e-06
2.75775e-06
2.85362e-06
2.9465e-06
3.0347e-06
3.11736e-06
3.19319e-06
3.26051e-06
3.31815e-06
3.36423e-06
3.3968e-06
3.41416e-06
3.41416e-06
3.39542e-06
3.35766e-06
3.29758e-06
3.21309e-06
3.10807e-06
2.98151e-06
2.83049e-06
2.65646e-06
2.46505e-06
2.26383e-06
2.06062e-06
1.86215e-06
1.67372e-06
1.49835e-06
1.33917e-06
1.19418e-06
1.06476e-06
9.46922e-07
8.02323e-07
7.00989e-07
2.06252e-06
1.99418e-06
1.92583e-06
1.85394e-06
1.7821e-06
1.71084e-06
1.642e-06
1.57797e-06
1.51894e-06
1.46414e-06
1.41306e-06
1.36494e-06
1.31865e-06
1.27301e-06
1.22699e-06
1.17959e-06
1.12968e-06
1.07641e-06
1.01875e-06
9.55954e-07
8.87517e-07
8.13118e-07
7.32996e-07
6.48911e-07
5.63733e-07
4.80543e-07
4.01508e-07
3.281e-07
2.61507e-07
2.02643e-07
1.52038e-07
1.09832e-07
7.59065e-08
4.97581e-08
3.07857e-08
1.91737e-08
1.48687e-08
1.93041e-08
3.622e-08
1.69363e-06
1.75244e-06
1.8189e-06
1.8892e-06
1.96269e-06
2.04063e-06
2.12e-06
2.1995e-06
2.27843e-06
2.35558e-06
2.42945e-06
2.49952e-06
2.5647e-06
2.62401e-06
2.67635e-06
2.72034e-06
2.75465e-06
2.77762e-06
2.78776e-06
2.7835e-06
2.76475e-06
2.72855e-06
2.67283e-06
2.60002e-06
2.50965e-06
2.39903e-06
2.26847e-06
2.12189e-06
1.96454e-06
1.80224e-06
1.6405e-06
1.48383e-06
1.33506e-06
1.19737e-06
1.06927e-06
9.52087e-07
8.42062e-07
7.10836e-07
6.06743e-07
1.63677e-06
1.58222e-06
1.52761e-06
1.47065e-06
1.41368e-06
1.35727e-06
1.30294e-06
1.25259e-06
1.20625e-06
1.16336e-06
1.12352e-06
1.08614e-06
1.05032e-06
1.01521e-06
9.7996e-07
9.43748e-07
9.05718e-07
8.65124e-07
8.21188e-07
7.7321e-07
7.20644e-07
6.63137e-07
6.00691e-07
5.34518e-07
4.66838e-07
4.00074e-07
3.35994e-07
2.75857e-07
2.20708e-07
1.71425e-07
1.28591e-07
9.24911e-08
6.3195e-08
4.04286e-08
2.38366e-08
1.36098e-08
9.86056e-09
1.36987e-08
2.7243e-08
1.34661e-06
1.39388e-06
1.44735e-06
1.50408e-06
1.56356e-06
1.6268e-06
1.69148e-06
1.75648e-06
1.82135e-06
1.88513e-06
1.9467e-06
2.00562e-06
2.06122e-06
2.11265e-06
2.15914e-06
2.1997e-06
2.23319e-06
2.25838e-06
2.27409e-06
2.27888e-06
2.2726e-06
2.25294e-06
2.21777e-06
2.16882e-06
2.10548e-06
2.02549e-06
1.92871e-06
1.81763e-06
1.69581e-06
1.56742e-06
1.43674e-06
1.30759e-06
1.1825e-06
1.06409e-06
9.5189e-07
8.46439e-07
7.45199e-07
6.26489e-07
5.24927e-07
1.30115e-06
1.25762e-06
1.21396e-06
1.16865e-06
1.1234e-06
1.07867e-06
1.03566e-06
9.95898e-07
9.59355e-07
9.25622e-07
8.94385e-07
8.65151e-07
8.37267e-07
8.10027e-07
7.8285e-07
7.55029e-07
7.2589e-07
6.94842e-07
6.6124e-07
6.24487e-07
5.84089e-07
5.39614e-07
4.90959e-07
4.38952e-07
3.85258e-07
3.31839e-07
2.8006e-07
2.30976e-07
1.85488e-07
1.44396e-07
1.08305e-07
7.75654e-08
5.23848e-08
3.26639e-08
1.82407e-08
9.31498e-09
6.10318e-09
9.46909e-09
2.04611e-08
1.07236e-06
1.11038e-06
1.1534e-06
1.1992e-06
1.24734e-06
1.2986e-06
1.35127e-06
1.40434e-06
1.45756e-06
1.51011e-06
1.56123e-06
1.61052e-06
1.65752e-06
1.70156e-06
1.74216e-06
1.77847e-06
1.80977e-06
1.83507e-06
1.85335e-06
1.86339e-06
1.86503e-06
1.85648e-06
1.83582e-06
1.80403e-06
1.76067e-06
1.70381e-06
1.63299e-06
1.54967e-06
1.45624e-06
1.35562e-06
1.25098e-06
1.14534e-06
1.04096e-06
9.40004e-07
8.42344e-07
7.4835e-07
6.56282e-07
5.49766e-07
4.53792e-07
1.036e-06
1.00122e-06
9.663e-07
9.30163e-07
8.94188e-07
8.58628e-07
8.24497e-07
7.92985e-07
7.64066e-07
7.37394e-07
7.12754e-07
6.89801e-07
6.67975e-07
6.46714e-07
6.25605e-07
6.0409e-07
5.81651e-07
5.5782e-07
5.3204e-07
5.03802e-07
4.72682e-07
4.38255e-07
4.00346e-07
3.59519e-07
3.17029e-07
2.74358e-07
2.32642e-07
1.92704e-07
1.55322e-07
1.21198e-07
9.09153e-08
6.48634e-08
4.33221e-08
2.63307e-08
1.38644e-08
6.13529e-09
3.42031e-09
6.38801e-09
1.54082e-08
8.55178e-07
8.85749e-07
9.20397e-07
9.57335e-07
9.96291e-07
1.03787e-06
1.08066e-06
1.12395e-06
1.16754e-06
1.21074e-06
1.25299e-06
1.29402e-06
1.33346e-06
1.37085e-06
1.40582e-06
1.43782e-06
1.4662e-06
1.4902e-06
1.50904e-06
1.52179e-06
1.52819e-06
1.52686e-06
1.5162e-06
1.49661e-06
1.46774e-06
1.42806e-06
1.37695e-06
1.31513e-06
1.24416e-06
1.16601e-06
1.08293e-06
9.97258e-07
9.1078e-07
8.25333e-07
7.40973e-07
6.58022e-07
5.75133e-07
4.80283e-07
3.9188e-07
8.2607e-07
7.98241e-07
7.70303e-07
7.41468e-07
7.12797e-07
6.84487e-07
6.57352e-07
6.32305e-07
6.09336e-07
5.88166e-07
5.68673e-07
5.50508e-07
5.33308e-07
5.16666e-07
5.00196e-07
4.83472e-07
4.66098e-07
4.47703e-07
4.27844e-07
4.06092e-07
3.82073e-07
3.55416e-07
3.25872e-07
2.93817e-07
2.6023e-07
2.26223e-07
1.92698e-07
1.60303e-07
1.29687e-07
1.01462e-07
7.6158e-08
5.41814e-08
3.58411e-08
2.12755e-08
1.05568e-08
3.9085e-09
1.63322e-09
4.24796e-09
1.17014e-08
6.82834e-07
7.07435e-07
7.35323e-07
7.65128e-07
7.96631e-07
8.30325e-07
8.65079e-07
9.00337e-07
9.35974e-07
9.71393e-07
1.00621e-06
1.04023e-06
1.07315e-06
1.10467e-06
1.13451e-06
1.16224e-06
1.18739e-06
1.20939e-06
1.22766e-06
1.24143e-06
1.25038e-06
1.25352e-06
1.24946e-06
1.23834e-06
1.21985e-06
1.19276e-06
1.1564e-06
1.11109e-06
1.05771e-06
9.97525e-07
9.32093e-07
8.63131e-07
7.9206e-07
7.20243e-07
6.47945e-07
5.75311e-07
5.0159e-07
4.17925e-07
3.37977e-07
6.59516e-07
6.37255e-07
6.14877e-07
5.91848e-07
5.68979e-07
5.46413e-07
5.24798e-07
5.04854e-07
4.86561e-07
4.69704e-07
4.54194e-07
4.39794e-07
4.26187e-07
4.1306e-07
4.00133e-07
3.87077e-07
3.73577e-07
3.59327e-07
3.43969e-07
3.27177e-07
3.08609e-07
2.87923e-07
2.64888e-07
2.39739e-07
2.13198e-07
1.86147e-07
1.59256e-07
1.33053e-07
1.08062e-07
8.48063e-08
6.3754e-08
4.52931e-08
2.97525e-08
1.73291e-08
8.15902e-09
2.47294e-09
5.74639e-10
2.85888e-09
9.03517e-09
5.45833e-07
5.6563e-07
5.88071e-07
6.12126e-07
6.37596e-07
6.64881e-07
6.93094e-07
7.21789e-07
7.50862e-07
7.7987e-07
8.08494e-07
8.36589e-07
8.63946e-07
8.90339e-07
9.15561e-07
9.39333e-07
9.6128e-07
9.80992e-07
9.97985e-07
1.01163e-06
1.02164e-06
1.02732e-06
1.02753e-06
1.02211e-06
1.01089e-06
9.92873e-07