/*--------------------------------*- C++ -*----------------------------------*\
| =========                 |                                                 |
| \\      /  F ield         | OpenFOAM: The Open Source CFD Toolbox           |
|  \\    /   O peration     | Version:  2312                                  |
|   \\  /    A nd           | Website:  www.openfoam.com                      |
|    \\/     M anipulation  |                                                 |
\*---------------------------------------------------------------------------*/
FoamFile
{
    version     2.0;
    format      ascii;
    arch        "LSB;label=32;scalar=64";
    class       volScalarField;
    location    "250";
    object      turbulenceProperties:I;
}
// * * * * * * * * * * * * * * * * * * * * * * * * * * * * * * * * * * * * * //

dimensions      [0 0 0 0 0 0 0];

internalField   nonuniform List<scalar> 
10720
(
0.00417386
0.00414897
0.00416916
0.00429762
0.00446097
0.00469031
0.00500329
0.00538898
0.0058665
0.00645468
0.00717315
0.00806412
0.00918815
0.0106285
0.0125285
0.0150862
0.0186926
0.0238224
0.0320044
0.044383
0.0693325
0.111414
0.227641
0.420156
0.507
0.466428
0.408
0.366133
0.339147
0.322034
0.310968
0.303263
0.298802
0.296691
0.296741
0.299007
0.307223
0.31778
0.398784
0.00422522
0.00438217
0.00456293
0.00498462
0.00568595
0.00704222
0.0101788
0.0169985
0.0134931
0.00874646
0.00732307
0.00706361
0.00731407
0.00787075
0.00865662
0.00966571
0.0109376
0.0125661
0.014696
0.0175301
0.0214022
0.0267176
0.0344046
0.0453563
0.0627083
0.0884378
0.130978
0.186827
0.221537
0.234698
0.238639
0.240293
0.241518
0.242567
0.243552
0.244664
0.246105
0.249523
0.255957
0.00181771
0.00166463
0.00152706
0.00139722
0.00127661
0.0011684
0.00106925
0.000977841
0.000896761
0.000824129
0.000759246
0.000711246
0.000692093
0.000711395
0.000795771
0.000979906
0.00132913
0.00190068
0.00294457
0.00464648
0.00816449
0.014141
0.0264873
0.0520411
0.0804276
0.108573
0.136545
0.160817
0.175198
0.177302
0.170928
0.161598
0.153268
0.147358
0.144514
0.144916
0.154134
0.166609
0.318127
0.00198338
0.00219071
0.00246949
0.00286733
0.00346236
0.00439616
0.00583153
0.00715608
0.00638665
0.00446988
0.00313759
0.00234296
0.00183801
0.00149024
0.00123556
0.00104048
0.000884653
0.000756368
0.000645177
0.000542923
0.000438667
0.000325424
0.000185282
7.25141e-05
0.000112816
0.00129829
0.00295695
0.00830038
0.0151197
0.0210817
0.0257814
0.0293934
0.0322559
0.0347434
0.0371145
0.0396047
0.0424709
0.0476594
0.0612106
0.00157856
0.00145464
0.00133319
0.00121896
0.00112071
0.00103357
0.000958138
0.000895705
0.000844819
0.000804955
0.000774079
0.000752465
0.000739183
0.000734066
0.000729861
0.00071553
0.000657317
0.000619441
0.000345153
8.70779e-06
0.00205369
0.000434132
0.00150171
0.00224584
0.00772789
0.0151448
0.0252516
0.0400363
0.0599259
0.0830647
0.105316
0.121972
0.130809
0.133927
0.135212
0.137013
0.144472
0.152381
0.256032
0.00172214
0.00189281
0.00212853
0.00244295
0.00286654
0.00342207
0.00405524
0.00446469
0.00424786
0.00349969
0.00272295
0.00212326
0.0016864
0.00136416
0.00112272
0.000938114
0.000796319
0.000687224
0.000604407
0.000541375
0.000494102
0.000459256
0.000434771
0.000416856
0.000406281
0.000396854
0.000402751
0.000306627
0.000797049
0.00202945
0.00340308
0.00491208
0.00734845
0.0106617
0.0142961
0.0179021
0.0214183
0.0239699
0.0337522
0.00149014
0.00138663
0.00128692
0.00119624
0.00111315
0.00103586
0.00096544
0.000900506
0.000840906
0.000785935
0.000734985
0.000687231
0.000641823
0.000598261
0.000555785
0.000512258
0.000468254
0.000430834
0.000378346
0.0002852
0.000103339
0.000168506
0
0.0011846
0.00274862
0.00402968
0.00304997
0.00216263
0.00387822
0.0125222
0.027432
0.0480966
0.0712507
0.0919482
0.107324
0.118275
0.130442
0.142167
0.215605
0.00159988
0.00172789
0.00189068
0.00210501
0.00237201
0.0026839
0.0029907
0.00316915
0.00308271
0.00273245
0.00229155
0.00189404
0.0015752
0.00132702
0.00113431
0.000982899
0.000863116
0.000767417
0.000690505
0.00062744
0.000575277
0.000531021
0.000491962
0.000454129
0.000417914
0.000387949
0.000364827
0.000347665
0.00032875
0.000305495
0.00026372
0.000208908
0.000577802
0.000760767
0.00145529
0.00339424
0.00626558
0.0101609
0.0207167
0.00131445
0.00122926
0.00114544
0.0010662
0.000993093
0.000924119
0.00086039
0.000801943
0.000748323
0.000700019
0.000656858
0.000618829
0.000586152
0.000558835
0.000536852
0.00051934
0.000502969
0.000484731
0.00046731
0.000441436
0.000400026
0.000309271
0.000101602
5.36133e-05
0
0
0.00193583
0.00219646
0.00334025
0.00235097
0.00377175
0.00523342
0.0132221
0.0338956
0.0588304
0.0829022
0.105095
0.124908
0.182997
0.00140556
0.00150898
0.00163726
0.0017951
0.00197602
0.00216707
0.00233677
0.00242984
0.00238909
0.00220597
0.00194576
0.00167768
0.00143657
0.00123126
0.00106017
0.000918331
0.00080093
0.000703863
0.000623813
0.000557586
0.000502765
0.000456897
0.000417588
0.000381186
0.000345855
0.00031356
0.000287159
0.000267939
0.000258178
0.000246271
0.000270886
0.00013136
0.000335093
0.000725632
0.00115203
0.00106573
0.00128506
0.00178348
0.00901671
0.00119671
0.00112913
0.00106141
0.000997491
0.000938138
0.000881724
0.000829266
0.000780502
0.000735017
0.000692781
0.000653388
0.000616597
0.000582264
0.000550151
0.000520069
0.000490966
0.000461007
0.000430984
0.00040308
0.000377274
0.000359367
0.00033957
0.000316712
0.000194215
7.14684e-05
4.98364e-05
3.09817e-05
0
0
0.000906623
0.00192585
0.00451259
0.00185147
0.00733169
0.0109862
0.0361669
0.0672543
0.0986608
0.151898
0.00126668
0.0013441
0.00143786
0.00155011
0.00167227
0.00179415
0.0018974
0.00195264
0.00193063
0.00182502
0.00166347
0.0014819
0.00130526
0.00114548
0.00100634
0.000887547
0.000787168
0.000702892
0.000632361
0.000573175
0.000523174
0.000480152
0.000441916
0.000405684
0.000370146
0.000337024
0.000307862
0.000282876
0.000261401
0.000243106
0.00022711
0.000212392
0.000190181
0.000159714
2.28712e-05
0.000410619
0.000533237
0.000855944
0.00302284
0.00107717
0.00102228
0.000966386
0.000912714
0.000862482
0.000813975
0.000768189
0.000725175
0.000684518
0.000646353
0.000610535
0.000576952
0.000545682
0.00051677
0.000490204
0.000466227
0.000445425
0.000427023
0.000409368
0.000391602
0.000374353
0.000359459
0.000352673
0.000332097
0.000278752
0.000210909
0.000120892
5.42129e-05
4.0824e-05
1.27458e-05
0
0
0.000670899
0.00424675
0.00364886
0.00952649
0.0255118
0.0639362
0.11844
0.00113328
0.00119398
0.00126584
0.00134878
0.00143474
0.00151692
0.00158487
0.00162043
0.00160726
0.00154215
0.00143772
0.00131277
0.00118309
0.00105864
0.000944562
0.000842729
0.000753206
0.000675366
0.00060816
0.000550217
0.000500181
0.00045654
0.000417608
0.000381211
0.000346031
0.000313051
0.000283578
0.000257972
0.000235869
0.000217221
0.000202718
0.000193
0.000187192
0.000178318
0.000155062
5.58008e-05
3.79122e-05
8.18821e-06
0.000511207
0.000977302
0.000933307
0.000887831
0.000843764
0.000802336
0.000761986
0.000723738
0.000687632
0.000653314
0.000620911
0.00059021
0.000561099
0.000533554
0.000507486
0.000482827
0.000459585
0.000437239
0.000414993
0.000393321
0.000373216
0.000355373
0.000341061
0.000331592
0.000327195
0.000317582
0.000297594
0.000266097
0.000221832
0.000174723
5.07643e-05
4.15574e-05
9.28573e-06
0
0
0.00141871
0.00629865
0.00880994
0.0288026
0.0823118
0.00102146
0.00106846
0.00112326
0.00118503
0.00124695
0.00130455
0.00135166
0.00137592
0.00136758
0.0013253
0.00125508
0.00116732
0.00107175
0.000975644
0.000883803
0.000798874
0.000721953
0.000653438
0.000593089
0.000540205
0.000493842
0.000452861
0.000415893
0.000381256
0.000347943
0.000316662
0.000288384
0.000263287
0.000240865
0.000220678
0.000202636
0.000186505
0.000172037
0.000159036
0.000149958
0.000143904
0.000126745
4.14582e-05
0.000134574
0.000887719
0.000852031
0.000814641
0.000777973
0.000743326
0.00070923
0.000676614
0.000645578
0.000615802
0.000587399
0.000560241
0.00053422
0.000509352
0.000485606
0.000463011
0.000441548
0.000421296
0.000402591
0.000385271
0.000369121
0.00035415
0.000340786
0.000329343
0.000320319
0.000311969
0.000301105
0.000288324
0.000273482
0.000256378
0.000222879
0.000184941
4.16376e-05
3.29428e-05
0
0
0
0.00500548
0.0106011
0.0484115
0.000923081
0.000960128
0.00100277
0.0010497
0.00109556
0.00113746
0.00117139
0.00118863
0.00118317
0.00115453
0.00110582
0.00104298
0.000971977
0.000897797
0.00082423
0.000753771
0.000687916
0.000627499
0.000572805
0.000523697
0.000479726
0.00044016
0.000404014
0.000370101
0.000337669
0.000307132
0.000279319
0.000254496
0.000232343
0.000212558
0.00019516
0.000180466
0.000168838
0.000160595
0.000156086
0.000157818
0.000165954
0.000173493
3.49878e-05
0.000809546
0.000780572
0.000749864
0.000719479
0.000690626
0.000662041
0.000634537
0.000608238
0.000582878
0.000558566
0.000535173
0.00051261
0.000490886
0.000469965
0.000449847
0.000430532
0.000412082
0.000394274
0.000376977
0.000360571
0.000345642
0.000332671
0.000321715
0.000311949
0.000301974
0.000290584
0.00027853
0.000267588
0.000259105
0.000252296
0.000245079
0.000214877
0.000146843
4.5225e-05
1.56416e-06
0
0.000321423
0.00350448
0.024051
0.000837891
0.000867253
0.000900717
0.000936853
0.000971492
0.0010029
0.00102803
0.00104064
0.00103701
0.00101695
0.000982227
0.00093639
0.000883128
0.000825721
0.000767015
0.000709083
0.000653355
0.000600898
0.000552258
0.00050765
0.000466966
0.00042979
0.000395459
0.000363169
0.000332349
0.000303311
0.000276713
0.000252784
0.000231252
0.000211792
0.000194309
0.000178831
0.000165326
0.000154284
0.000146104
0.000145274
0.000146023
0.000192261
0.000128098
0.000740422
0.000716744
0.000691382
0.000666079
0.000641938
0.000617861
0.000594529
0.000572125
0.000550376
0.0005294
0.000509075
0.000489315
0.000470126
0.000451473
0.000433376
0.00041587
0.000398976
0.000382793
0.000367423
0.000352947
0.000339605
0.000327608
0.00031703
0.000307258
0.000296996
0.000285268
0.000272487
0.00026053
0.000250952
0.000244699
0.0002411
0.000241274
0.000231849
0.000187775
7.06582e-06
2.03155e-07
0
0.00207857
0.0121904
0.000763322
0.000786822
0.000813426
0.000841644
0.000868274
0.000892378
0.000911412
0.000920836
0.000918394
0.000903987
0.000878633
0.000844599
0.000804231
0.000759667
0.000712876
0.00066545
0.000618609
0.000573352
0.000530377
0.00049007
0.000452537
0.000417637
0.000384984
0.000354065
0.000324539
0.000296656
0.000270932
0.000247609
0.000226521
0.000207443
0.000190344
0.000175364
0.00016272
0.000152934
0.000146288
0.000146312
0.0001477
0.00017875
0.000206337
0.000679315
0.000659903
0.000638901
0.000617792
0.000597598
0.000577323
0.000557589
0.000538558
0.000519999
0.000502021
0.000484512
0.000467389
0.000450653
0.000434274
0.000418259
0.000402641
0.000387461
0.000372806
0.000358623
0.000345012
0.000332333
0.000320865
0.000310657
0.000301221
0.000291465
0.000280472
0.000268423
0.000256698
0.000246636
0.000238786
0.000232769
0.000230647
0.000232174
0.000237002
0.000199089
4.62694e-05
0
0.000870344
0.00719276
0.000697919
0.000716831
0.000738186
0.000760485
0.00078127
0.000800078
0.00081475
0.000821938
0.000820264
0.000809651
0.000790777
0.000765124
0.000734211
0.000699396
0.000662077
0.00062338
0.00058423
0.000545508
0.000507863
0.000471797
0.000437574
0.000405225
0.000374547
0.000345265
0.000317259
0.000290737
0.000266123
0.000243646
0.000223209
0.000204632
0.000187864
0.000173005
0.000160159
0.000149781
0.000142361
0.000141106
0.000143488
0.000165187
0.000215303
0.000625
0.000609019
0.000591569
0.000573912
0.000556974
0.000539865
0.000523154
0.000506981
0.000491133
0.000475715
0.000460626
0.000445787
0.000431188
0.000416792
0.000402611
0.000388678
0.000375024
0.000361758
0.000348926
0.000336604
0.000325013
0.000314355
0.000304637
0.000295508
0.00028616
0.000275858
0.000264692
0.00025372
0.000244082
0.000236103
0.000229446
0.000224401
0.000222225
0.000225393
0.000239669
0.000181221
5.24358e-06
0.000494027
0.00414482
0.000640203
0.000655525
0.000672794
0.000690612
0.000707045
0.000721911
0.000733383
0.000738943
0.000737767
0.000729803
0.000715504
0.000695874
0.000671941
0.000644606
0.000614758
0.000583198
0.000550604
0.000517667
0.000484949
0.000452928
0.000421937
0.000392123
0.000363452
0.000335845
0.00030932
0.000284103
0.000260538
0.000238853
0.000219016
0.000200904
0.000184496
0.000169922
0.000157351
0.000147243
0.000140084
0.00013858
0.000141071
0.000158537
0.000205929
0.000576553
0.000563344
0.00054881
0.000534013
0.000519791
0.000505359
0.000491206
0.000477469
0.000463962
0.00045077
0.000437814
0.000425001
0.000412334
0.000399775
0.00038732
0.000374994
0.000362827
0.000350927
0.000339332
0.000328082
0.000317356
0.000307387
0.000298179
0.000289452
0.00028058
0.000270969
0.000260654
0.000250472
0.000241417
0.000233815
0.000227449
0.000222156
0.000218344
0.000216747
0.000222582
0.000253894
4.78129e-05
0.000158909
0.00207187
0.000589014
0.000601504
0.000615551
0.000629916
0.000643057
0.000654914
0.000663962
0.000668341
0.000667483
0.000661388
0.000650372
0.000635165
0.00061646
0.000594833
0.000570903
0.00054517
0.00051809
0.000490193
0.000461928
0.000433707
0.000405855
0.000378595
0.000352007
0.000326165
0.000301194
0.000277329
0.000254883
0.000234071
0.000214907
0.00019732
0.000181304
0.000166989
0.000154517
0.000144318
0.000136887
0.00013485
0.000136847
0.000152578
0.000194858
0.00053315
0.000522193
0.000510066
0.000497636
0.00048568
0.000473502
0.00046151
0.000449846
0.000438344
0.000427073
0.000415968
0.000404942
0.000393982
0.000383052
0.000372135
0.000361264
0.000350469
0.000339821
0.000329403
0.000319249
0.000309453
0.00030024
0.000291611
0.000283343
0.000274965
0.000266008
0.000256473
0.000247016
0.000238488
0.000231255
0.000225207
0.000220289
0.00021643
0.00021484
0.000210528
0.000242663
0.000178948
1.91456e-05
0.000551278
0.000543386
0.000553617
0.000565109
0.000576765
0.000587368
0.000596888
0.000604089
0.000607563
0.000606917
0.000602168
0.000593564
0.000581625
0.000566854
0.000549634
0.000530355
0.00050935
0.000486896
0.000463343
0.00043903
0.000414292
0.00038944
0.000364709
0.000340232
0.000316152
0.000292714
0.000270197
0.000248875
0.000228948
0.00021047
0.000193416
0.000177801
0.000163764
0.000151461
0.00014132
0.000133815
0.000131405
0.000132924
0.00014678
0.000184643
0.0004941
0.000484998
0.000474858
0.000464402
0.000454354
0.000444073
0.000433922
0.00042403
0.000414252
0.000404646
0.00039515
0.000385681
0.00037623
0.000366754
0.000357247
0.000347718
0.000338195
0.000328728
0.000319421
0.00031028
0.000301361
0.00029287
0.000284831
0.00027707
0.000269215
0.000260901
0.000252112
0.000243359
0.000235353
0.000228469
0.000222674
0.00021802
0.000214375
0.000213121
0.000209846
0.00021807
0.0002486
1.25659e-05
0.000146719
0.00050254
0.000510932
0.000520382
0.00052989
0.000538508
0.000546191
0.000551949
0.000554718
0.000554201
0.000550437
0.000543617
0.000534146
0.000522378
0.000508559
0.000492963
0.000475763
0.000457136
0.000437295
0.000416467
0.000394902
0.000372852
0.000350545
0.000328142
0.00030586
0.000283987
0.00026283
0.000242645
0.000223632
0.000205871
0.000189376
0.000174182
0.000160432
0.000148278
0.000138129
0.000130447
0.00012757
0.000128619
0.000140764
0.00017493
0.000458831
0.000451264
0.00044277
0.000433976
0.000425527
0.000416851
0.000408265
0.00039989
0.000391584
0.000383408
0.000375306
0.0003672
0.000359085
0.00035091
0.000342662
0.000334346
0.000325982
0.000317608
0.000309326
0.000301147
0.000293093
0.000285329
0.0002779
0.000270677
0.000263368
0.000255682
0.000247602
0.000239525
0.00023204
0.000225512
0.000219966
0.000215473
0.000212068
0.000210347
0.000210631
0.000204547
0.000259279
2.22001e-05
7.14737e-07
0.00046581
0.000472712
0.000480495
0.000488288
0.000495329
0.000501547
0.000506168
0.000508377
0.000507939
0.000504903
0.000499427
0.000491818
0.000482345
0.000471182
0.000458492
0.000444378
0.000428908
0.000412216
0.000394423
0.000375705
0.00035625
0.000336242
0.000315855
0.000295334
0.000275014
0.000255201
0.000236158
0.000218072
0.000201047
0.000185128
0.000170367
0.00015691
0.000144915
0.000134776
0.000126938
0.00012361
0.000124195
0.000134747
0.00016549
0.000426865
0.000420568
0.000413446
0.000406055
0.000398948
0.000391638
0.000384384
0.000377304
0.000370266
0.000363331
0.000356441
0.000349531
0.000342582
0.000335553
0.000328426
0.000321203
0.0003139
0.000306537
0.000299206
0.000291925
0.0002847
0.000277639
0.000270823
0.000264157
0.000257405
0.000250335
0.000242933
0.000235506
0.000228542
0.000222383
0.000217106
0.000212763
0.000209556
0.000207422
0.000208919
0.000202133
0.000238946
0.000155645
2.37301e-05
0.000432639
0.000438322
0.000444745
0.000451148
0.000456925
0.000461963
0.000465675
0.000467429
0.000467032
0.000464536
0.000460081
0.000453904
0.000446212
0.000437119
0.000426737
0.000415105
0.000402237
0.000388191
0.000373021
0.00035682
0.000339728
0.000321892
0.000303456
0.000284649
0.000265828
0.000247348
0.000229447
0.000212301
0.000196029
0.000180702
0.000166388
0.00015323
0.000141391
0.000131247
0.000123224
0.00011942
0.000119543
0.000128714
0.000156292
0.000397792
0.000392546
0.000386586
0.000380368
0.000374406
0.000368253
0.000362142
0.000356166
0.000350221
0.000344353
0.000338512
0.000332634
0.000326709
0.00032069
0.000314566
0.000308325
0.00030198
0.000295548
0.000289092
0.000282646
0.000276205
0.000269828
0.000263623
0.000257523
0.000251331
0.000244861
0.000238103
0.000231299
0.00022485
0.00021907
0.000214073
0.000209912
0.000206826
0.000204674
0.000205461
0.00020301
0.000216477
0.000218677
8.23114e-05
0.000402565
0.000407245
0.000412549
0.000417824
0.000422562
0.000426649
0.000429626
0.000431008
0.000430625
0.00042854
0.000424866
0.000419794
0.000413487
0.000406023
0.000397473
0.000387847
0.000377116
0.000365285
0.000352362
0.000338386
0.000323421
0.000307572
0.000290959
0.000273815
0.000256487
0.000239317
0.00022254
0.000206332
0.00019082
0.000176093
0.000162232
0.000149379
0.000137698
0.000127542
0.000119324
0.000115038
0.000114699
0.000122662
0.000147341
0.000371262
0.000366896
0.000361912
0.000356691
0.000351698
0.000346534
0.000341394
0.000336371
0.000331364
0.000326416
0.000321484
0.00031651
0.000311482
0.00030636
0.000301121
0.000295759
0.000290276
0.000284687
0.000279027
0.000273353
0.00026765
0.000261937
0.000256328
0.000250787
0.00024515
0.000239264
0.000233121
0.000226913
0.000220969
0.000215573
0.000210858
0.000206902
0.000203892
0.000201909
0.000201662
0.000202486
0.000203712
0.000225728
0.000163001
0.000375203
0.00037905
0.000383433
0.000387786
0.000391658
0.000394971
0.000397353
0.000398419
0.000398035
0.00039626
0.000393189
0.000388979
0.000383756
0.000377583
0.000370499
0.000362491
0.000353514
0.000343538
0.000332526
0.000320476
0.000307417
0.000293397
0.000278496
0.000262927
0.000247029
0.000231126
0.000215454
0.00020018
0.000185433
0.000171315
0.000157917
0.000145371
0.000133848
0.00012367
0.000115239
0.000110455
0.000109652
0.000116606
0.000138688
0.00034698
0.000343357
0.000339195
0.000334822
0.000330651
0.000326332
0.000322023
0.000317817
0.000313618
0.000309466
0.000305322
0.000301133
0.000296887
0.000292547
0.00028809
0.000283508
0.000278797
0.000273968
0.000269043
0.000264089
0.000259073
0.000253995
0.000248965
0.000243971
0.000238877
0.000233553
0.000227995
0.000222354
0.000216902
0.000211891
0.000207462
0.000203718
0.000200787
0.000198935
0.000198072
0.000199845
0.000198408
0.000213847
0.000200962
0.000350228
0.000353381
0.000357
0.000360591
0.000363745
0.000366417
0.000368312
0.000369118
0.000368722
0.000367182
0.000364576
0.000361037
0.000356674
0.000351525
0.000345617
0.000338919
0.000331377
0.000322944
0.00031356
0.000303183
0.000291798
0.000279428
0.00026612
0.000252038
0.000237492
0.000222811
0.00020822
0.000193869
0.000179888
0.000166382
0.000153449
0.000141213
0.000129844
0.000119633
0.00011097
0.000105677
0.000104407
0.000110527
0.000130319
0.000324694
0.000321696
0.000318235
0.000314578
0.000311114
0.000307513
0.000303919
0.000300415
0.000296912
0.000293447
0.000289983
0.000286474
0.000282911
0.000279255
0.00027549
0.000271599
0.00026758
0.00026344
0.000259187
0.000254882
0.000250498
0.000246021
0.000241546
0.000237081
0.000232515
0.000227733
0.00022273
0.00021763
0.000212656
0.000208025
0.000203887
0.000200355
0.000197526
0.000195717
0.000194635
0.000195996
0.000195526
0.000201402
0.000207693
0.000327365
0.000329933
0.000332915
0.000335871
0.000338429
0.000340574
0.000342065
0.00034265
0.000342233
0.000340868
0.000338632
0.000335627
0.000331943
0.000327608
0.00032264
0.000317009
0.000310647
0.000303495
0.000295482
0.000286544
0.000276639
0.000265746
0.000253882
0.000241181
0.000227928
0.000214424
0.000200876
0.000187429
0.000174203
0.000161306
0.000148839
0.000136916
0.000125697
0.00011544
0.000106525
0.000100703
9.8972e-05
0.000104433
0.000122251
0.000304189
0.000301719
0.000298851
0.000295808
0.000292945
0.00028996
0.000286982
0.000284078
0.000281177
0.000278304
0.000275431
0.000272514
0.000269547
0.00026649
0.00026333
0.000260051
0.000256646
0.000253119
0.000249471
0.000245756
0.000241954
0.000238044
0.000234098
0.000230138
0.000226078
0.000221812
0.000217335
0.000212748
0.000208233
0.000203981
0.000200133
0.000196808
0.000194098
0.000192283
0.000191151
0.00019177
0.000192337
0.000192777
0.000201635
0.000306376
0.000308454
0.000310901
0.000313323
0.000315384
0.000317091
0.000318243
0.000318641
0.0003182
0.000316972
0.00031502
0.000312438
0.000309294
0.000305617
0.000301414
0.000296644
0.000291249
0.000285165
0.000278306
0.000270599
0.000261981
0.000252405
0.000241855
0.000230435
0.00021839
0.000206003
0.000193454
0.000180882
0.0001684
0.00015611
0.000144109
0.000132497
0.000121423
0.000111108
0.000101917
9.55407e-05
9.3341e-05
9.83239e-05
0.000114503
0.000285278
0.000283255
0.00028089
0.000278375
0.000276023
0.000273567
0.000271116
0.000268731
0.000266344
0.000263984
0.00026162
0.000259217
0.000256764
0.000254232
0.000251604
0.000248864
0.000246004
0.000243024
0.000239925
0.000236745
0.000233475
0.000230095
0.000226644
0.000223164
0.000219581
0.000215803
0.000211821
0.00020772
0.000203644
0.000199761
0.000196202
0.000193087
0.000190499
0.000188671
0.000187498
0.000187507
0.000188283
0.000186766
0.000192747
0.000287052
0.000288728
0.000290721
0.000292696
0.000294341
0.00029568
0.000296549
0.000296784
0.000296316
0.000295191
0.00029347
0.000291226
0.00028852
0.000285368
0.000281776
0.000277712
0.000273113
0.000267914
0.000262029
0.000255374
0.000247876
0.000239465
0.000230098
0.000219846
0.000208922
0.000197577
0.000185988
0.000174263
0.000162507
0.000150817
0.000139278
0.000127977
0.000117045
0.00010666
9.71647e-05
9.01978e-05
8.75216e-05
9.21915e-05
0.000107062
0.000267799
0.000266155
0.000264217
0.000262157
0.00026024
0.000258239
0.00025624
0.000254301
0.00025236
0.00025044
0.000248518
0.000246559
0.000244554
0.00024248
0.000240314
0.000238048
0.00023567
0.000233176
0.000230568
0.000227869
0.000225086
0.000222188
0.000219196
0.000216164
0.000213035
0.000209718
0.000206202
0.000202556
0.0001989
0.000195373
0.000192099
0.000189191
0.000186728
0.000184899
0.000183652
0.000183244
0.000183658
0.000181648
0.000184364
0.000269223
0.00027056
0.00027217
0.000273768
0.000275065
0.000276094
0.000276727
0.000276826
0.00027633
0.000275285
0.000273744
0.000271769
0.00026941
0.000266688
0.000263599
0.000260109
0.000256165
0.000251701
0.000246635
0.000240875
0.00023434
0.00022695
0.000218643
0.000209457
0.000199573
0.000189206
0.000178521
0.000167607
0.000156556
0.000145453
0.000134371
0.000123381
0.000112587
0.000102123
9.22903e-05
8.46799e-05
8.1505e-05
8.60523e-05
9.9953e-05
0.000251607
0.000250287
0.000248716
0.000247041
0.0002455
0.000243887
0.000242278
0.00024072
0.000239165
0.000237625
0.000236084
0.000234509
0.000232895
0.000231214
0.000229453
0.000227603
0.000225648
0.000223586
0.000221416
0.000219148
0.000216802
0.000214349
0.000211783
0.000209171
0.000206462
0.000203572
0.000200488
0.000197268
0.00019401
0.000190827
0.00018783
0.000185125
0.000182789
0.000180962
0.000179629
0.00017891
0.000178783
0.000176569
0.000176901
0.00025274
0.000253789
0.000255074
0.000256355
0.000257359
0.000258127
0.000258563
0.000258543
0.000258021
0.000257038
0.000255643
0.000253886
0.000251811
0.000249434
0.000246754
0.000243739
0.000240335
0.000236481
0.000232101
0.000227105
0.000221403
0.000214903
0.000207531
0.000199303
0.000190368
0.000180917
0.000171081
0.000160941
0.000150572
0.000140042
0.000129414
0.000118734
0.000108076
9.75252e-05
8.73244e-05
7.8999e-05
7.52839e-05
7.99092e-05
9.3175e-05
0.000236582
0.000235538
0.000234281
0.000232934
0.000231714
0.000230436
0.000229159
0.000227932
0.000226707
0.000225497
0.000224283
0.00022304
0.000221762
0.000220426
0.000219019
0.000217529
0.000215945
0.000214264
0.00021248
0.000210601
0.000208648
0.000206593
0.000204422
0.000202195
0.000199874
0.00019738
0.000194697
0.000191874
0.000188987
0.000186132
0.000183404
0.000180897
0.000178685
0.000176875
0.000175446
0.000174469
0.000173828
0.000171345
0.000170049
0.00023747
0.000238276
0.000239285
0.000240298
0.000241055
0.000241603
0.000241872
0.000241754
0.000241209
0.000240273
0.000238994
0.000237414
0.000235571
0.000233479
0.000231131
0.000228505
0.000225548
0.000222208
0.000218403
0.000214052
0.000209065
0.000203345
0.000196802
0.000189439
0.000181368
0.000172758
0.000163718
0.000154311
0.000144594
0.000134622
0.00012444
0.000114072
0.000103554
9.29125e-05
8.23095e-05
7.3171e-05
6.88422e-05
7.37817e-05
8.67489e-05
0.000222616
0.000221804
0.000220818
0.000219752
0.000218807
0.000217816
0.000216824
0.000215883
0.00021494
0.000214013
0.000213082
0.000212125
0.000211136
0.000210097
0.000208995
0.000207819
0.000206561
0.000205212
0.000203772
0.000202239
0.000200638
0.000198941
0.000197129
0.000195251
0.000193285
0.000191157
0.000188844
0.000186387
0.000183847
0.000181301
0.000178831
0.000176519
0.000174423
0.000172639
0.000171125
0.000169918
0.000168831
0.000166032
0.000163568
0.000223294
0.000223898
0.000224675
0.00022546
0.00022601
0.000226375
0.000226501
0.0002263
0.000225733
0.000224835
0.00022365
0.000222214
0.000220561
0.000218702
0.000216633
0.000214328
0.000211743
0.000208826
0.000205508
0.000201705
0.00019733
0.000192285
0.000186475
0.000179882
0.000172597
0.000164759
0.000156457
0.000147741
0.000138649
0.000129222
0.000119482
0.000109429
9.90621e-05
8.8337e-05
7.73033e-05
6.72201e-05
6.21451e-05
6.76949e-05
8.06913e-05
0.000209612
0.000209001
0.000208242
0.000207418
0.000206708
0.00020596
0.000205216
0.000204517
0.000203817
0.000203132
0.000202445
0.000201734
0.000200996
0.000200215
0.000199377
0.000198475
0.000197498
0.000196441
0.000195302
0.000194076
0.000192786
0.000191408
0.000189917
0.000188361
0.000186716
0.000184917
0.000182942
0.000180822
0.000178603
0.000176348
0.000174122
0.000171998
0.000170021
0.00016826
0.000166679
0.000165255
0.000163792
0.000160685
0.000157341
0.000210112
0.000210548
0.00021113
0.000211717
0.000212095
0.000212308
0.000212315
0.000212043
0.000211457
0.000210592
0.000209486
0.000208169
0.000206672
0.000205004
0.000203165
0.000201127
0.000198852
0.000196292
0.000193382
0.000190045
0.000186197
0.000181738
0.00017657
0.000170663
0.000164083
0.000156953
0.000149338
0.000141272
0.000132778
0.000123878
0.000114577
0.000104847
9.4648e-05
8.38579e-05
7.23813e-05
6.11885e-05
5.5137e-05
6.17031e-05
7.50345e-05
0.000197487
0.000197046
0.000196481
0.000195864
0.000195354
0.000194815
0.000194283
0.000193791
0.000193301
0.000192824
0.000192345
0.000191846
0.000191323
0.000190761
0.000190152
0.000189484
0.000188753
0.000187951
0.000187075
0.000186118
0.000185102
0.000184006
0.000182805
0.000181535
0.00018018
0.000178679
0.000177011
0.000175197
0.000173273
0.000171287
0.000169292
0.000167345
0.000165485
0.000163757
0.000162116
0.000160507
0.000158722
0.000155357
0.000151348
0.000197837
0.000198131
0.000198549
0.000198969
0.000199203
0.000199289
0.000199197
0.000198865
0.000198265
0.000197426
0.000196384
0.000195169
0.000193804
0.000192296
0.000190646
0.000188831
0.000186815
0.000184557
0.000181993
0.000179052
0.000175655
0.000171703
0.000167098
0.000161801
0.000155861
0.000149373
0.000142393
0.000134935
0.000127011
0.000118623
0.00010976
0.000100367
9.03629e-05
7.95497e-05
6.76504e-05
5.5161e-05
4.77166e-05
5.58998e-05
6.98248e-05
0.000186165
0.000185868
0.000185469
0.000185028
0.000184689
0.000184329
0.000183977
0.000183662
0.000183352
0.000183052
0.000182752
0.000182433
0.000182094
0.000181721
0.000181307
0.000180844
0.000180325
0.000179742
0.000179093
0.000178373
0.000177597
0.00017675
0.000175806
0.000174791
0.000173693
0.00017246
0.000171067
0.000169529
0.000167874
0.000166136
0.000164356
0.000162579
0.000160829
0.000159139
0.000157452
0.000155693
0.000153632
0.000150055
0.00014557
0.000186389
0.000186563
0.000186844
0.000187124
0.000187237
0.000187218
0.000187045
0.000186665
0.000186053
0.000185238
0.000184253
0.00018312
0.000181864
0.000180494
0.000179005
0.000177377
0.000175579
0.000173573
0.000171302
0.0001687
0.00016569
0.000162181
0.000158069
0.000153311
0.000147945
0.000142043
0.000135649
0.000128762
0.00012138
0.000113492
0.000105068
9.60339e-05
8.62655e-05
7.54963e-05
6.32492e-05
4.931e-05
3.96723e-05
5.046e-05
6.51178e-05
0.000175581
0.000175405
0.000175146
0.000174855
0.000174661
0.000174454
0.000174255
0.000174091
0.000173934
0.000173784
0.000173636
0.000173472
0.000173289
0.000173079
0.000172832
0.000172543
0.000172204
0.000171811
0.00017136
0.000170846
0.00017028
0.000169649
0.00016893
0.00016814
0.000167269
0.000166273
0.000165126
0.000163836
0.000162423
0.000160912
0.000159331
0.000157712
0.000156072
0.000154421
0.000152703
0.000150817
0.00014854
0.000144807
0.000139993
0.000175697
0.000175772
0.000175938
0.0001761
0.000176113
0.000176008
0.000175768
0.00017535
0.000174731
0.000173938
0.000173
0.000171941
0.000170779
0.000169523
0.00016817
0.000166701
0.000165089
0.000163299
0.000161277
0.000158966
0.000156291
0.000153164
0.000149486
0.000145208
0.000140355
0.000134987
0.000129132
0.000122779
0.000115915
0.000108517
0.000100539
9.1887e-05
8.2409e-05
7.17821e-05
5.93476e-05
4.39999e-05
3.05578e-05
4.56855e-05
6.09839e-05
0.000165673
0.0001656
0.000165459
0.000165296
0.000165225
0.000165146
0.000165078
0.000165043
0.000165014