/*--------------------------------*- C++ -*----------------------------------*\
| =========                 |                                                 |
| \\      /  F ield         | OpenFOAM: The Open Source CFD Toolbox           |
|  \\    /   O peration     | Version:  2312                                  |
|   \\  /    A nd           | Website:  www.openfoam.com                      |
|    \\/     M anipulation  |                                                 |
\*---------------------------------------------------------------------------*/
FoamFile
{
    version     2.0;
    format      ascii;
    arch        "LSB;label=32;scalar=64";
    class       volScalarField;
    location    "250";
    object      turbulenceProperties:k;
}
// * * * * * * * * * * * * * * * * * * * * * * * * * * * * * * * * * * * * * //

dimensions      [0 2 -2 0 0 0 0];

internalField   nonuniform List<scalar> 
10720
(
0.0199833
0.023259
0.0274242
0.0330572
0.0396809
0.0480624
0.0587191
0.0718626
0.0885189
0.109773
0.137275
0.173661
0.222565
0.289938
0.385907
0.526417
0.742785
1.07645
1.6616
2.57445
4.62544
7.74062
18.0953
35.3699
39.2441
37.5635
36.9146
37.5891
38.4247
38.6345
38.1191
36.9786
35.1408
32.6293
29.3883
25.4929
20.2076
14.9473
3.50229
0.0170435
0.0146528
0.011959
0.00964198
0.00744655
0.00546147
0.00385386
0.00288577
0.00301408
0.00406774
0.00602806
0.00902854
0.0133917
0.0196288
0.0284082
0.0408032
0.0586438
0.0853188
0.127033
0.195006
0.311548
0.517718
0.911052
1.66818
3.31897
6.78736
15.171
31.2624
44.3013
49.8968
51.4843
51.7442
51.4463
50.7185
49.5981
48.1464
46.0224
43.548
35.6649
0.00310776
0.00309057
0.00305523
0.00296709
0.00283066
0.0026738
0.00248865
0.00228042
0.00207429
0.00187213
0.00167938
0.00154536
0.00152617
0.00167419
0.00216458
0.00337065
0.00632369
0.0130735
0.0313576
0.0767422
0.226869
0.626721
1.92266
6.16525
12.0609
18.1316
23.8446
27.9095
28.7402
26.3893
22.4997
18.5526
15.3482
12.892
11.0056
9.51026
8.46528
7.38139
7.91429
0.0030795
0.00303768
0.00295229
0.00282574
0.00265272
0.0024246
0.00215695
0.00189737
0.0016575
0.00141951
0.00119302
0.000996944
0.000831292
0.000690784
0.000571706
0.000471372
0.000386254
0.000314223
0.000251097
0.00019343
0.000136389
8.06253e-05
2.79353e-05
4.5441e-06
1.15686e-05
0.0015949
0.00853783
0.0688204
0.23143
0.45175
0.673393
0.867722
1.03109
1.17486
1.30942
1.44807
1.59479
1.92239
2.67434
0.00208401
0.00206756
0.00202094
0.00194967
0.00187513
0.00179323
0.00171044
0.00163599
0.00157196
0.00152229
0.00148386
0.00146181
0.00145587
0.00146825
0.00147258
0.0014287
0.00121384
0.00108487
0.000340057
2.19873e-07
0.0125332
0.000576434
0.0070285
0.0155528
0.176228
0.632652
1.61739
3.67466
7.27078
12.0263
16.343
18.4839
18.0917
16.2549
14.1055
12.0851
10.501
8.69657
9.76706
0.00210025
0.00209767
0.00209211
0.00205489
0.00198884
0.00187793
0.00172497
0.00155027
0.0013879
0.00122092
0.00104125
0.000867258
0.000711539
0.000577448
0.000466742
0.000377359
0.000307699
0.000254864
0.000216433
0.000188825
0.000169801
0.000157453
0.000150666
0.000146941
0.000146762
0.000145816
0.00015511
9.22302e-05
0.000635398
0.00417521
0.0118322
0.02471
0.0551249
0.115006
0.203555
0.312016
0.429979
0.514709
0.878639
0.00175906
0.0017627
0.00175384
0.00173924
0.0017091
0.00166425
0.00160833
0.00153852
0.00145874
0.00137049
0.00127568
0.0011756
0.00107123
0.000964466
0.000856286
0.000742715
0.00062836
0.000534146
0.000410387
0.000230945
2.99711e-05
7.91245e-05
0
0.00392532
0.0209337
0.0438629
0.0242613
0.0117363
0.0361179
0.355282
1.56804
4.27995
8.04575
11.1965
12.5707
12.4044
11.6719
10.2221
11.006
0.00174019
0.00171162
0.00166674
0.0016127
0.00154494
0.00145621
0.00135261
0.00124236
0.00112758
0.00100302
0.000874269
0.000753561
0.000646912
0.000554999
0.00047734
0.000412236
0.000358674
0.00031505
0.000280038
0.000251535
0.000228375
0.000208922
0.000191489
0.000173156
0.000154322
0.000138667
0.000126842
0.000118342
0.00010805
9.47264e-05
7.1284e-05
4.49459e-05
0.000343798
0.000593074
0.00214733
0.0114875
0.0379621
0.0959309
0.349129
0.00131969
0.00131735
0.00130706
0.00128871
0.00126033
0.00122185
0.00117533
0.0011215
0.0010621
0.00100077
0.00093949
0.000880713
0.000827069
0.000780185
0.00074119
0.000708414
0.00067384
0.000630603
0.000587032
0.000521806
0.000424799
0.000250829
2.66902e-05
7.30877e-06
0
0
0.00867362
0.0107654
0.0241002
0.0115889
0.0289266
0.0535373
0.32113
1.90552
4.92895
8.02861
10.0027
10.3901
11.5729
0.00131627
0.00130696
0.00128843
0.00125875
0.0012169
0.0011576
0.00108665
0.00101046
0.000929227
0.000840068
0.000747316
0.000656556
0.000571319
0.000493087
0.000422911
0.000361236
0.000308212
0.000263605
0.000226896
0.000196968
0.000172806
0.000153105
0.000136464
0.000120593
0.000104465
8.9571e-05
7.7745e-05
6.95751e-05
6.59906e-05
6.09789e-05
7.45125e-05
1.76062e-05
0.000114567
0.000534738
0.00133467
0.00112519
0.00159233
0.00296521
0.0678346
0.00108172
0.00108633
0.00108589
0.00108201
0.00107138
0.00105415
0.00103108
0.00100125
0.000965281
0.000924141
0.000878188
0.000828507
0.000776272
0.00072241
0.000667874
0.000611357
0.000549745
0.000486555
0.000427975
0.000374595
0.00033762
0.000297949
0.000254867
9.36145e-05
1.22734e-05
5.72645e-06
2.11198e-06
0
0
0.0015787
0.0068408
0.0362108
0.005895
0.0889699
0.187348
1.8042
5.09562
8.26945
11.0213
0.00107192
0.00105837
0.00103867
0.00101266
0.000979293
0.000935423
0.000884929
0.00083075
0.000771844
0.000706726
0.000638528
0.000570649
0.000505691
0.000445168
0.000390133
0.000341272
0.000298799
0.000262594
0.000232233
0.000206939
0.000185825
0.000167772
0.000151538
0.000135385
0.000118614
0.000102646
8.87177e-05
7.7062e-05
6.72868e-05
5.91596e-05
5.21948e-05
4.5912e-05
3.68414e-05
2.58786e-05
5.25699e-07
0.000166922
0.000274015
0.000681918
0.00770473
0.000875049
0.000878891
0.000879503
0.000877275
0.000870286
0.000858184
0.00084126
0.000819015
0.000791645
0.000759907
0.000724342
0.000685842
0.000645593
0.00060474
0.00056424
0.000525443
0.000490272
0.000457495
0.000424122
0.000389167
0.000354715
0.000324647
0.000308636
0.000268387
0.000183685
0.000101152
3.17491e-05
6.08179e-06
3.28188e-06
3.04039e-07
0
0
0.000720209
0.0275617
0.0195236
0.126706
0.815411
4.17514
8.80621
0.000867863
0.000858131
0.000843977
0.000824487
0.000799202
0.000766757
0.000730294
0.00069055
0.000646786
0.000598797
0.000548358
0.000497373
0.000447387
0.000399466
0.000354508
0.000313226
0.000276021
0.000243132
0.000214559
0.000189967
0.000168882
0.000150598
0.000134214
0.00011847
0.000102705
8.77681e-05
7.46377e-05
6.35867e-05
5.43872e-05
4.6919e-05
4.13341e-05
3.77016e-05
3.55124e-05
3.21106e-05
2.40638e-05
3.07099e-06
1.38089e-06
6.22243e-08
0.000221382
0.000725267
0.000730218
0.000733158
0.000734342
0.000732331
0.000726837
0.00071808
0.000705417
0.000688844
0.000668716
0.000645002
0.000618163
0.000588727
0.000557177
0.000524072
0.000490092
0.000454811
0.000417309
0.000379342
0.000343492
0.000311402
0.000285294
0.000266829
0.000255393
0.000234515
0.000198882
0.000152501
0.000101273
5.99124e-05
4.81075e-06
3.05582e-06
1.44036e-07
0
0
0.00278772
0.0521281
0.0962919
0.929722
5.23837
0.000717828
0.000708863
0.000696846
0.000680897
0.000660911
0.000636142
0.000609082
0.000579255
0.00054623
0.000510402
0.000472579
0.000433944
0.00039545
0.00035782
0.000321787
0.000288051
0.000257035
0.000229113
0.000204423
0.000182823
0.000163966
0.000147321
0.000132165
0.000117548
0.000102974
8.90669e-05
7.65919e-05
6.57619e-05
5.63501e-05
4.81469e-05
4.10939e-05
3.50554e-05
2.98857e-05
2.54631e-05
2.24476e-05
2.0379e-05
1.5408e-05
1.59316e-06
1.54132e-05
0.000605002
0.00060977
0.000613244
0.000615412
0.000615333
0.000612691
0.000607551
0.000599342
0.000587994
0.000573611
0.000556148
0.00053585
0.000513077
0.000488195
0.000461744
0.000434149
0.00040604
0.00037851
0.00035165
0.00032546
0.000300341
0.000277283
0.000256794
0.000239323
0.000221875
0.000200298
0.000176759
0.000152446
0.000128126
9.23626e-05
6.04427e-05
2.89915e-06
1.70831e-06
0
0
0
0.0295585
0.126876
2.06057
0.000598467
0.000590903
0.000581128
0.000568147
0.000552317
0.000533204
0.000512602
0.000489783
0.000464554
0.000437431
0.000408796
0.000379324
0.000349585
0.000320024
0.00029115
0.000263492
0.000237465
0.000213414
0.000191554
0.000171917
0.000154355
0.000138533
0.000123945
0.000109953
9.62086e-05
8.31123e-05
7.12947e-05
6.09943e-05
5.20784e-05
4.4394e-05
3.79071e-05
3.26607e-05
2.86598e-05
2.5866e-05
2.42392e-05
2.444e-05
2.6359e-05
2.78636e-05
1.04694e-06
0.000510038
0.000514711
0.000518609
0.000521625
0.000523027
0.000522664
0.000520484
0.000516004
0.000509152
0.000499921
0.000488161
0.000473989
0.00045757
0.000439089
0.000418837
0.000397108
0.000374351
0.00035053
0.000325806
0.00030124
0.000278141
0.000257443
0.000239194
0.000221994
0.000203788
0.000183371
0.000162604
0.000144221
0.00012959
0.000117433
0.000105547
7.69747e-05
3.3942e-05
3.02194e-06
3.36336e-09
0
0.000118876
0.0134392
0.537613
0.000504055
0.000497464
0.000489249
0.000478457
0.000465695
0.000450778
0.000434726
0.000416958
0.000397496
0.000376715
0.000354806
0.000332172
0.000309108
0.00028585
0.000262774
0.000240268
0.000218649
0.000198266
0.000179339
0.000161979
0.00014615
0.000131651
0.000118135
0.000105178
9.25161e-05
8.04408e-05
6.94475e-05
5.9749e-05
5.12491e-05
4.38084e-05
3.73739e-05
3.19183e-05
2.73652e-05
2.3787e-05
2.11727e-05
2.0655e-05
2.03694e-05
3.41823e-05
1.41041e-05
0.00043304
0.000437415
0.000441338
0.00044465
0.000446772
0.000447648
0.000447128
0.000444878
0.000440751
0.000434721
0.000426602
0.000416423
0.000404244
0.000390145
0.000374332
0.000357041
0.000338532
0.000319225
0.000299556
0.000279914
0.00026093
0.000243109
0.000226619
0.000210545
0.00019316
0.000173634
0.000153319
0.000135002
0.000120262
0.000109453
0.000101356
9.64449e-05
8.42473e-05
5.20079e-05
6.8774e-08
5.26642e-11
0
0.00461168
0.139788
0.00042768
0.000421974
0.00041508
0.000406047
0.000395636
0.000383854
0.000371128
0.000357089
0.000341922
0.000325845
0.000308916
0.000291392
0.000273431
0.000255137
0.000236718
0.00021845
0.000200565
0.000183335
0.000166992
0.000151671
0.000137394
0.000124071
0.000111496
9.93991e-05
8.76253e-05
7.63964e-05
6.60948e-05
5.69258e-05
4.88486e-05
4.17714e-05
3.56659e-05
3.0541e-05
2.63942e-05
2.32838e-05
2.1157e-05
2.08934e-05
2.08e-05
2.95187e-05
3.67752e-05
0.000370151
0.000374227
0.000378056
0.000381464
0.000384024
0.000385688
0.000386332
0.000385648
0.000383524
0.000379904
0.000374604
0.000367607
0.000358905
0.000348519
0.000336547
0.00032313
0.000308469
0.000292865
0.00027643
0.000259523
0.000242891
0.000227103
0.000212294
0.000197802
0.000182254
0.00016486
0.000146521
0.000129372
0.000114882
0.000103236
9.36983e-05
8.75154e-05
8.39838e-05
8.24741e-05
5.44671e-05
2.73578e-06
0
0.00080372
0.0486467
0.000365354
0.000360354
0.000354515
0.000346904
0.000338323
0.000328875
0.000318647
0.000307429
0.000295487
0.000282907
0.000269718
0.000256068
0.000242018
0.000227575
0.000212881
0.000198098
0.000183368
0.000168909
0.000154903
0.000141508
0.000128796
0.000116741
0.000105215
9.40631e-05
8.32322e-05
7.28866e-05
6.33286e-05
5.47428e-05
4.71215e-05
4.03999e-05
3.45499e-05
2.95773e-05
2.54576e-05
2.22485e-05
1.99711e-05
1.938e-05
1.95945e-05
2.51896e-05
4.0235e-05
0.000318164
0.000321917
0.000325558
0.000328911
0.000331642
0.000333729
0.000335073
0.000335393
0.000334592
0.000332609
0.000329269
0.000324534
0.000318357
0.000310705
0.000301634
0.000291227
0.0002796
0.000267011
0.000253655
0.000239783
0.000225849
0.00021227
0.000199141
0.000186047
0.00017206
0.000156579
0.000140243
0.000124701
0.000111232
9.99429e-05
9.02806e-05
8.22497e-05
7.64736e-05
7.42113e-05
7.86224e-05
4.18638e-05
3.21457e-08
0.000260043
0.0162004
0.000313895
0.000309503
0.000304513
0.000298078
0.000290946
0.000283262
0.000274947
0.000265893
0.000256394
0.000246469
0.000236109
0.000225392
0.00021434
0.000202925
0.000191186
0.000179227
0.000167134
0.000155058
0.000143139
0.00013151
0.00012026
0.000109403
9.88888e-05
8.86539e-05
7.86984e-05
6.91687e-05
6.03006e-05
5.22633e-05
4.50774e-05
3.87059e-05
3.31366e-05
2.8389e-05
2.44631e-05
2.14168e-05
1.9273e-05
1.86408e-05
1.8906e-05
2.31878e-05
3.69827e-05
0.000274838
0.000278265
0.000281678
0.0002849
0.000287665
0.000289984
0.000291745
0.000292718
0.00029283
0.000292003
0.000290095
0.000287041
0.000282797
0.000277311
0.000270585
0.000262655
0.000253582
0.000243566
0.000232734
0.000221236
0.00020941
0.000197674
0.00018611
0.000174429
0.000161971
0.000148276
0.000133805
0.000119846
0.000107525
9.70189e-05
8.79489e-05
8.00245e-05
7.33781e-05
6.82836e-05
6.75455e-05
8.19124e-05
2.67318e-06
2.70445e-05
0.00408071
0.000271023
0.000267168
0.000262859
0.000257393
0.00025143
0.000245093
0.000238252
0.0002309
0.00022327
0.000215365
0.000207157
0.000198697
0.000189965
0.0001809
0.000171522
0.000161859
0.000151948
0.000141898
0.000131809
0.000121784
0.0001119
0.000102203
9.26923e-05
8.33716e-05
7.42792e-05
6.55415e-05
5.73569e-05
4.98735e-05
4.31304e-05
3.71142e-05
3.18223e-05
2.72787e-05
2.34834e-05
2.04933e-05
1.83415e-05
1.76023e-05
1.77597e-05
2.14671e-05
3.32665e-05
0.000238438
0.000241545
0.000244716
0.000247749
0.000250456
0.000252865
0.000254843
0.000256218
0.00025693
0.000256897
0.000256002
0.000254184
0.000251376
0.00024752
0.000242588
0.000236597
0.000229583
0.000221654
0.000212952
0.000203576
0.000193708
0.000183706
0.000173643
0.000163318
0.000152283
0.000140202
0.000127402
0.000114892
0.000103637
9.39009e-05
8.54457e-05
7.80887e-05
7.16468e-05
6.67516e-05
6.02018e-05
7.46252e-05
3.74062e-05
3.93782e-07
0.00029183
0.00023502
0.000231629
0.000227891
0.000223217
0.000218198
0.000212912
0.000207238
0.000201217
0.00019504
0.000188691
0.000182142
0.000175411
0.00016847
0.000161251
0.000153735
0.000145928
0.000137828
0.000129489
0.000120979
0.000112376
0.000103755
9.51664e-05
8.66304e-05
7.8178e-05
6.98931e-05
6.19054e-05
5.43737e-05
4.74269e-05
4.11171e-05
3.54504e-05
3.0435e-05
2.6102e-05
2.2461e-05
1.95722e-05
1.74678e-05
1.66682e-05
1.67278e-05
1.98599e-05
3.0004e-05
0.000207636
0.000210453
0.000213374
0.000216198
0.000218802
0.0002212
0.000223278
0.00022489
0.000225989
0.000226503
0.000226323
0.000225392
0.000223653
0.000221035
0.00021752
0.000213082
0.000207737
0.000201534
0.000194611
0.000187003
0.000178807
0.00017032
0.000161626
0.000152591
0.000142892
0.000132288
0.000121021
0.000109867
9.9638e-05
9.06414e-05
8.27479e-05
7.58831e-05
6.98356e-05
6.5349e-05
5.95881e-05
6.01265e-05
7.21459e-05
1.69918e-07
2.08732e-05
0.000204584
0.00020158
0.000198327
0.000194309
0.000190062
0.000185609
0.00018086
0.000175892
0.000170848
0.000165708
0.00016044
0.000155057
0.000149514
0.000143736
0.000137702
0.000131379
0.000124758
0.000117855
0.000110707
0.000103366
9.58864e-05
8.83219e-05
8.07053e-05
7.30984e-05
6.55955e-05
5.83235e-05
5.1417e-05
4.49927e-05
3.91101e-05
3.37897e-05
2.9049e-05
2.49237e-05
2.14282e-05
1.86229e-05
1.65428e-05
1.56665e-05
1.56361e-05
1.82615e-05
2.70475e-05
0.000181413
0.000183966
0.000186636
0.000189253
0.000191718
0.000194045
0.000196138
0.000197873
0.000199202
0.000200069
0.000200382
0.000200089
0.000199143
0.000197472
0.000195041
0.000191819
0.000187802
0.000183008
0.000177545
0.00017143
0.000164703
0.000157573
0.000150134
0.000142302
0.000133846
0.000124588
0.000114711
0.000104815
9.55704e-05
8.72992e-05
7.99571e-05
7.35093e-05
6.78771e-05
6.33173e-05
5.98023e-05
5.27807e-05
7.84688e-05
5.31169e-07
4.99716e-10
0.000178694
0.000176029
0.000173175
0.000169707
0.000166093
0.000162308
0.000158305
0.000154177
0.000150027
0.000145832
0.000141567
0.000137226
0.000132769
0.000128129
0.000123264
0.000118143
0.000112728
0.000107024
0.000101037
9.4799e-05
8.83479e-05
8.17231e-05
7.49662e-05
6.81518e-05
6.13876e-05
5.47881e-05
4.84772e-05
4.25572e-05
3.70907e-05
3.21102e-05
2.76406e-05
2.37214e-05
2.03733e-05
1.76579e-05
1.56111e-05
1.46688e-05
1.45562e-05
1.67324e-05
2.43082e-05
0.000158971
0.000161279
0.000163709
0.000166126
0.000168427
0.000170655
0.000172704
0.000174478
0.000175936
0.000177031
0.00017768
0.000177847
0.000177473
0.000176503
0.0001749
0.000172627
0.000169671
0.000166023
0.00016176
0.000156892
0.000151425
0.00014548
0.00013917
0.000132446
0.000125132
0.000117098
0.000108483
9.97481e-05
9.14451e-05
8.38873e-05
7.70992e-05
7.10574e-05
6.58111e-05
6.1226e-05
5.85985e-05
5.14216e-05
6.66534e-05
2.61593e-05
5.55338e-07
0.000156544
0.000154177
0.000151663
0.000148656
0.000145564
0.000142323
0.000138926
0.000135471
0.000132029
0.000128579
0.000125099
0.000121579
0.000117976
0.000114226
0.000110291
0.000106129
0.000101698
9.69853e-05
9.1982e-05
8.66969e-05
8.1157e-05
7.53941e-05
6.94415e-05
6.33667e-05
5.72835e-05
5.13181e-05
4.55735e-05
4.01384e-05
3.50764e-05
3.04284e-05
2.62254e-05
2.2509e-05
1.93062e-05
1.66774e-05
1.46606e-05
1.36544e-05
1.34656e-05
1.52682e-05
2.17683e-05
0.00013967
0.000141749
0.000143964
0.000146176
0.00014832
0.000150422
0.000152398
0.000154153
0.000155667
0.000156892
0.00015776
0.000158234
0.000158274
0.000157822
0.000156852
0.000155316
0.000153195
0.000150476
0.000147191
0.000143359
0.00013896
0.000134049
0.00012875
0.000123032
0.000116758
0.000109829
0.000102352
9.46838e-05
8.72723e-05
8.04103e-05
7.41705e-05
6.85496e-05
6.36375e-05
5.92696e-05
5.64406e-05
5.1744e-05
5.47165e-05
5.1757e-05
6.73399e-06
0.000137501
0.000135394
0.000133173
0.000130557
0.000127892
0.000125102
0.000122201
0.000119291
0.000116415
0.000113558
0.000110698
0.000107821
0.00010489
0.000101844
9.86455e-05
9.52539e-05
9.16222e-05
8.77267e-05
8.35503e-05
7.90901e-05
7.435e-05
6.93511e-05
6.41238e-05
5.87396e-05
5.3305e-05
4.79336e-05
4.27205e-05
3.7746e-05
3.3073e-05
2.87471e-05
2.48042e-05
2.1287e-05
1.82279e-05
1.56857e-05
1.37004e-05
1.26372e-05
1.23787e-05
1.38682e-05
1.94207e-05
0.000122997
0.000124869
0.000126882
0.000128905
0.000130886
0.000132857
0.000134731
0.000136438
0.000137955
0.000139242
0.000140242
0.000140928
0.000141261
0.000141196
0.000140697
0.000139729
0.000138263
0.000136281
0.000133785
0.000130805
0.000127309
0.000123299
0.000118888
0.000114069
0.00010873
0.000102795
9.6343e-05
8.96481e-05
8.30722e-05
7.68812e-05
7.11758e-05
6.59832e-05
6.13754e-05
5.73341e-05
5.41405e-05
5.13511e-05
4.84604e-05
5.52907e-05
2.66107e-05
0.000121057
0.000119177
0.000117211
0.00011493
0.000112613
0.000110202
0.000107713
0.000105241
0.000102822
0.000100439
9.80713e-05
9.57051e-05
9.33034e-05
9.08165e-05
8.82054e-05
8.543e-05
8.24469e-05
7.92262e-05
7.57406e-05
7.19785e-05
6.79381e-05
6.36247e-05
5.90572e-05
5.43026e-05
4.94632e-05
4.46419e-05
3.99268e-05
3.53894e-05
3.10898e-05
2.70756e-05
2.33861e-05
2.00637e-05
1.71462e-05
1.46889e-05
1.27351e-05
1.16201e-05
1.12978e-05
1.25357e-05
1.72698e-05
0.000108538
0.000110226
0.00011205
0.000113896
0.00011572
0.000117554
0.000119315
0.000120949
0.000122435
0.000123738
0.000124811
0.00012563
0.000126163
0.00012637
0.000126221
0.000125684
0.000124725
0.000123326
0.000121473
0.0001192
0.000116457
0.000113221
0.000109588
0.000105564
0.00010106
9.60107e-05
9.04754e-05
8.46636e-05
7.88652e-05
7.33154e-05
6.81282e-05
6.33583e-05
5.90518e-05
5.53131e-05
5.20005e-05
4.98954e-05
4.59749e-05
4.97573e-05
4.07519e-05
0.000106803
0.000105123
0.00010338
0.000101385
9.9359e-05
9.72626e-05
9.51169e-05
9.30074e-05
9.09589e-05
8.89565e-05
8.69798e-05
8.5017e-05
8.30377e-05
8.0994e-05
7.88521e-05
7.6572e-05
7.41128e-05
7.14455e-05
6.85388e-05
6.53713e-05
6.19303e-05
5.82187e-05
5.42469e-05
5.00665e-05
4.57684e-05
4.14549e-05
3.72051e-05
3.30804e-05
2.91366e-05
2.54218e-05
2.1977e-05
1.88444e-05
1.60652e-05
1.36915e-05
1.17698e-05
1.06095e-05
1.02296e-05
1.12665e-05
1.53019e-05
9.59552e-05
9.74762e-05
9.91304e-05
0.000100809
0.000102485
0.000104181
0.000105826
0.000107373
0.000108804
0.00011009
0.000111189
0.000112084
0.000112748
0.000113146
0.000113256
0.000113041
0.000112475
0.000111537
0.000110203
0.000108498
0.000106374
0.000103798
0.000100839
9.75107e-05
9.37468e-05
8.94845e-05
8.47657e-05
7.97512e-05
7.4671e-05
6.97277e-05
6.50407e-05
6.06805e-05
5.66848e-05
5.31956e-05
4.99838e-05
4.78701e-05
4.46526e-05
4.42568e-05
4.38451e-05
9.44056e-05
9.28989e-05
9.13509e-05
8.95994e-05
8.78222e-05
8.59924e-05
8.41338e-05
8.23216e-05
8.05748e-05
7.88785e-05
7.72194e-05
7.55819e-05
7.39374e-05
7.22458e-05
7.04767e-05
6.85962e-05
6.65633e-05
6.43479e-05
6.19197e-05
5.92537e-05
5.63322e-05
5.31451e-05
4.96977e-05
4.60329e-05
4.22333e-05
3.83887e-05
3.45691e-05
3.08302e-05
2.72225e-05
2.37931e-05
2.05838e-05
1.76358e-05
1.49913e-05
1.26995e-05
1.08105e-05
9.61071e-06
9.18105e-06
1.00625e-05
1.35107e-05
8.49718e-05
8.63426e-05
8.78394e-05
8.93652e-05
9.09013e-05
9.24626e-05
9.39912e-05
9.54419e-05
9.68055e-05
9.80509e-05
9.91478e-05
0.000100079
0.000100824
0.000101352
0.000101642
0.000101667
0.000101399
0.000100817
9.98939e-05
9.86455e-05
9.70334e-05
9.5016e-05
9.26347e-05
8.99118e-05
8.67952e-05
8.32254e-05
7.92293e-05
7.49303e-05
7.05083e-05
6.6135e-05
6.19256e-05
5.79592e-05
5.42761e-05
5.10069e-05
4.7985e-05
4.57085e-05
4.32107e-05
4.06606e-05
4.16155e-05
8.35869e-05
8.22359e-05
8.08575e-05
7.93146e-05
7.77493e-05
7.6147e-05
7.45281e-05
7.29637e-05
7.14652e-05
7.00195e-05
6.86138e-05
6.72366e-05
6.58605e-05
6.44527e-05
6.29852e-05
6.14239e-05
5.97357e-05
5.7892e-05
5.58604e-05
5.36148e-05
5.11348e-05
4.84047e-05
4.54213e-05
4.2219e-05
3.88688e-05
3.5452e-05
3.20274e-05
2.86471e-05
2.5356e-05
2.21985e-05
1.92152e-05
1.64456e-05
1.39319e-05
1.17203e-05
9.86414e-06
8.63013e-06
8.15679e-06
8.92395e-06
1.18897e-05
7.53583e-05
7.65926e-05
7.79457e-05
7.9333e-05
8.07346e-05
8.21691e-05
8.35818e-05
8.49355e-05
8.62195e-05
8.74114e-05
8.84815e-05
8.942e-05
9.02051e-05
9.08159e-05
9.12338e-05
9.14318e-05
9.13883e-05
9.10798e-05
9.04831e-05
8.96017e-05
8.84061e-05
8.68568e-05
8.49661e-05
8.27645e-05
8.02076e-05
7.72418e-05
7.38818e-05
7.02206e-05
6.63963e-05
6.25533e-05
5.8797e-05
5.52088e-05
5.1832e-05
4.87753e-05
4.59462e-05
4.35816e-05
4.14091e-05
3.82717e-05
3.82848e-05
7.41171e-05
7.29087e-05
7.16778e-05
7.03155e-05
6.89328e-05
6.75242e-05
6.61088e-05
6.47493e-05
6.34554e-05
6.22146e-05
6.10175e-05
5.98516e-05
5.86931e-05
5.75113e-05
5.62832e-05
5.49811e-05
5.35736e-05
5.20335e-05
5.03304e-05
4.84382e-05
4.63343e-05
4.39984e-05
4.14216e-05
3.8629e-05
3.56812e-05
3.26494e-05
2.95894e-05
2.65413e-05
2.35465e-05
2.06464e-05
1.78788e-05
1.52809e-05
1.28945e-05
1.07618e-05
8.93836e-06
7.67449e-06
7.16387e-06
7.84971e-06
1.04257e-05
6.69216e-05
6.80327e-05
6.92549e-05
7.05158e-05
7.17927e-05
7.31073e-05
7.44081e-05
7.56635e-05
7.68661e-05
7.79937e-05
7.90239e-05
7.99473e-05
8.07466e-05
8.1405e-05
8.19044e-05
8.22259e-05
8.23472e-05
8.22472e-05
8.19051e-05
8.13134e-05
8.04569e-05
7.92909e-05
7.78113e-05
7.60521e-05
7.39794e-05
7.15392e-05
6.87363e-05
6.56397e-05
6.23551e-05
5.89994e-05
5.56689e-05
5.24408e-05
4.93602e-05
4.65176e-05
4.38624e-05
4.15074e-05
3.93975e-05
3.63034e-05
3.52539e-05
6.58088e-05
6.47269e-05
6.36261e-05
6.24208e-05
6.11965e-05
5.9953e-05
5.87118e-05
5.75257e-05
5.64018e-05
5.53306e-05
5.4303e-05
5.33072e-05
5.23227e-05
5.13257e-05
5.02935e-05
4.92003e-05
4.80203e-05
4.67288e-05
4.5298e-05
4.37002e-05
4.19133e-05
3.99152e-05
3.76933e-05
3.52634e-05
3.26771e-05
2.99935e-05
2.72642e-05
2.45217e-05
2.18031e-05
1.91446e-05
1.6582e-05
1.41495e-05
1.18867e-05
9.83174e-06
8.04047e-06
6.74972e-06
6.2068e-06
6.84307e-06
9.11277e-06
5.94995e-05
6.05011e-05
6.1605e-05
6.27481e-05
6.39108e-05
6.51119e-05
6.63065e-05
6.7465e-05
6.85854e-05
6.9644e-05
7.06248e-05
7.15182e-05
7.23124e-05
7.29902e-05
7.35399e-05
7.39448e-05
7.41845e-05
7.42408e-05
7.40937e-05
7.37305e-05
7.31442e-05
7.22939e-05
7.11584e-05
6.97747e-05
6.8113e-05
6.6123e-05
6.38022e-05
6.12011e-05
5.84002e-05
5.54904e-05
5.25557e-05
4.96677e-05
4.6872e-05
4.42394e-05
4.17481e-05
3.94546e-05
3.73285e-05
3.43945e-05
3.2658e-05
5.85036e-05
5.75334e-05
5.6547e-05
5.54792e-05
5.43928e-05
5.32919e-05
5.21999e-05
5.11596e-05
5.01788e-05
4.92481e-05
4.83607e-05
4.75049e-05
4.66632e-05
4.58144e-05
4.49403e-05
4.40182e-05
4.30242e-05
4.19357e-05
4.07292e-05
3.93787e-05
3.78601e-05
3.61503e-05
3.42336e-05
3.21208e-05
2.9854e-05
2.74855e-05
2.50555e-05
2.25939e-05
2.01313e-05
1.76996e-05
1.53319e-05
1.30584e-05
1.09152e-05
8.93719e-06
7.17852e-06
5.86263e-06
5.29085e-06
5.90462e-06
7.93986e-06
5.29575e-05
5.38601e-05
5.48574e-05
5.58924e-05
5.69495e-05
5.80453e-05
5.91383e-05
6.02055e-05
6.1243e-05
6.22317e-05
6.31563e-05
6.40107e-05
6.47845e-05
6.54639e-05
6.604e-05
6.6497e-05
6.68181e-05
6.69887e-05
6.69887e-05
6.68046e-05
6.64321e-05
6.58351e-05
6.49862e-05
6.39154e-05
6.26005e-05
6.09946e-05
5.90896e-05
5.69211e-05
5.45484e-05
5.20426e-05
4.9473e-05
4.69032e-05
4.43781e-05
4.19547e-05
3.96186e-05
3.741e-05
3.52796e-05
3.24743e-05
3.03543e-05
5.20664e-05
5.11965e-05
5.03115e-05
4.93634e-05
4.83976e-05
4.742e-05
4.64562e-05
4.55414e-05
4.46813e-05
4.38679e-05
4.3096e-05
4.23557e-05
4.16314e-05
4.09045e-05
4.01584e-05
3.93751e-05
3.85332e-05
3.76136e-05
3.65923e-05
3.54466e-05
3.41542e-05
3.26914e-05
3.1039e-05
2.92045e-05
2.72203e-05
2.51318e-05
2.29723e-05
2.07664e-05
1.85396e-05
1.63201e-05
1.41362e-05
1.2015e-05
9.98844e-06
8.08705e-06
6.36111e-06
5.02009e-06
4.42075e-06
5.03713e-06
6.89974e-06
4.7181e-05
4.79932e-05
4.88948e-05
4.98306e-05
5.07907e-05
5.17893e-05
5.27869e-05
5.37675e-05
5.47238e-05
5.56426e-05
5.65083e-05
5.73176e-05
5.806e-05
5.87276e-05
5.93103e-05
5.97958e-05
6.01718e-05
6.04221e-05
6.05323e-05
6.04861e-05
6.0282e-05
5.98861e-05
5.92714e-05
5.84586e-05
5.74336e-05
5.61536e-05
5.46043e-05
5.28107e-05
5.08149e-05
4.86707e-05
4.64354e-05
4.41626e-05
4.18901e-05
3.96713e-05
3.74893e-05
3.53754e-05
3.32688e-05
3.05669e-05
2.82403e-05
4.63822e-05
4.56028e-05
4.48089e-05
4.39654e-05
4.31055e-05
4.22367e-05
4.13828e-05
4.05753e-05
3.98176e-05
3.91032e-05
3.84279e-05
3.77832e-05
3.7155e-05
3.65286e-05
3.58889e-05
3.52196e-05
3.45027e-05
3.37206e-05
3.28532e-05
3.1879e-05
3.07763e-05
2.95228e-05
2.80984e-05
2.65056e-05
2.47708e-05
2.29312e-05
2.10147e-05
1.90414e-05
1.7032e-05
1.50105e-05
1.30006e-05
1.10257e-05
9.1138e-06
7.28958e-06
5.59733e-06
4.22946e-06
3.60006e-06
4.24325e-06
5.98392e-06
4.20707e-05
4.28026e-05
4.36158e-05
4.44624e-05
4.53331e-05
4.62408e-05
4.71511e-05
4.80486e-05
4.89278e-05
4.9777e-05
5.05834e-05
5.13433e-05
5.20501e-05
5.26955e-05
5.3272e-05
5.37701e-05
5.41779e-05
5.44826e-05
5.46718e-05
5.47294e-05
5.46539e-05
5.4417e-05
5.39906e-05
5.33915e-05
5.26061e-05
5.15971e-05
5.03494e-05
4.8878e-05
4.72116e-05
4.53894e-05
4.3456e-05
4.14569e-05
3.94241e-05
3.73983e-05
3.53717e-05
3.33551e-05
3.12969e-05
2.86961e-05
2.62674e-05
4.13544e-05
4.06568e-05
3.99448e-05
3.91921e-05
3.8426e-05
3.76531e-05
3.68947e-05
3.61796e-05
3.55096e-05
3.48797e-05
3.42861e-05
3.37211e-05
3.31732e-05
3.26291e-05
3.20771e-05
3.1502e-05
3.08881e-05
3.02203e-05
2.94805e-05
2.86495e-05
2.77074e-05
2.66316e-05
2.54026e-05
2.40195e-05
2.25026e-05
2.08843e-05
1.91859e-05
1.74237e-05
1.5614e-05
1.37764e-05
1.19311e-05
1.0097e-05
8.29775e-06
6.55228e-06
4.89643e-06
3.49904e-06
2.83228e-06
3.52787e-06
5.18588e-06
3.7543e-05
3.82027e-05
3.89357e-05
3.97011e-05
4.04903e-05
4.13139e-05
4.21433e-05
4.2963e-05
4.37696e-05
4.45516e-05
4.52994e-05
4.6009e-05
4.66755e-05
4.72914e-05
4.78524e-05
4.83484e-05
4.87721e-05
4.91118e-05
4.93558e-05
4.94893e-05
4.95112e-05
4.93975e-05
4.91218e-05
4.86948e-05
4.81061e-05
4.73229e-05
4.63289e-05
4.51315e-05
4.37499e-05
4.22114e-05
4.05496e-05
3.87997e-05
3.69895e-05
3.51501e-05
3.32742e-05
3.13629e-05
2.93704e-05
2.68815e-05
2.44229e-05
3.6901e-05
3.62763e-05
3.5638e-05
3.49653e-05
3.42824e-05
3.35938e-05
3.29193e-05
3.22841e-05
3.169e-05
3.11319e-05
3.06074e-05
3.01105e-05
2.96303e-05
2.91549e-05
2.86752e-05
2.81778e-05
2.76495e-05
2.70771e-05
2.64441e-05
2.57327e-05
2.49253e-05
2.40005e-05
2.2939e-05
2.17379e-05
2.04129e-05
1.89896e-05
1.74864e-05
1.59148e-05
1.42881e-05
1.26213e-05
1.09314e-05
9.23331e-06
7.54592e-06
5.88287e-06
4.26883e-06
2.83972e-06
2.12027e-06
2.89762e-06
4.50022e-06
3.35263e-05
3.41203e-05
3.47813e-05
3.54723e-05
3.61869e-05
3.69343e-05
3.76881e-05
3.84354e-05
3.91738e-05
3.98919e-05
4.05819e-05
4.12411e-05
4.18649e-05
4.24477e-05
4.29858e-05
4.34722e-05
4.38992e-05
4.42571e-05
4.4536e-05
4.47237e-05
4.48176e-05
4.47981e-05
4.46414e-05
4.43522e-05
4.39223e-05
4.33245e-05
4.25422e-05
4.15763e-05
4.04389e-05
3.91482e-05
3.77277e-05
3.62047e-05
3.45994e-05
3.29364e-05
3.12079e-05
2.94092e-05
2.74947e-05
2.51254e-05
2.26957e-05
3.29508e-05
3.2391e-05
3.18191e-05
3.12179e-05
3.06083e-05
2.99943e-05
2.93938e-05
2.88283e-05
2.82999e-05
2.78039e-05
2.73393e-05
2.68991e-05
2.64755e-05
2.60592e-05
2.56404e-05
2.52082e-05
2.47511e-05
2.42577e-05
2.37136e-05
2.3103e-05
2.24093e-05
2.16135e-05
2.06957e-05
1.96515e-05
1.84942e-05
1.72435e-05
1.59146e-05
1.45154e-05
1.30558e-05
1.1548e-05
1.00049e-05
8.43883e-06
6.86354e-06
5.28808e-06
3.72497e-06
2.26654e-06
1.46514e-06
2.36292e-06
3.92173e-06
2.99582e-05
3.04931e-05
3.10883e-05
3.17121e-05
3.23584e-05
3.30356e-05
3.37199e-05
3.44002e-05
3.50744e-05
3.57319e-05
3.63667e-05
3.69763e-05
3.75569e-05
3.81045e-05
3.86156e-05
3.90848e-05
3.95054e-05
3.98697e-05
4.01697e-05
4.03944e-05
4.05397e-05
4.05906e-05
4.05249e-05
4.03442e-05
4.00417e-05
3.95948e-05
3.89866e-05
3.82152e-05
3.72859e-05
3.62095e-05
3.50019e-05
3.36822e-05
3.22657e-05
3.07682e-05
2.91831e-05
2.74989e-05
2.56767e-05
2.34376e-05
2.10771e-05
2.94422e-05
2.8941e-05
2.84284e-05
2.78909e-05
2.73467e-05
2.67989e-05
2.62635e-05
2.57596e-05
2.52886e-05
2.48466e-05
2.4433e-05
2.40425e-05
2.36677e-05
2.33003e-05
2.29328e-05
2.25556e-05
2.21588e-05
2.1732e-05
2.12625e-05
2.0737e-05
2.014e-05
1.94533e-05
1.86589e-05
1.77511e-05
1.67397e-05
1.56417e-05
1.44679e-05
1.32242e-05
1.19177e-05
1.05577e-05
9.15399e-06
7.71566e-06
6.25345e-06
4.7725e-06
3.27474e-06
1.80287e-06
8.69071e-07
1.93846e-06
3.44609e-06
2.67847e-05
2.72661e-05
2.78018e-05
2.83647e-05
2.89488e-05
2.95617e-05
3.01824e-05
3.08009e-05
3.14151e-05
3.20162e-05
3.25985e-05
3.31601e-05
3.36979e-05
3.42087e-05
3.46899e-05
3.51374e-05
3.55455e-05
3.59081e-05
3.62178e-05
3.64646e-05
3.66445e-05
3.67463e-05
3.675e-05
3.6653e-05
3.64512e-05