/*--------------------------------*- C++ -*----------------------------------*\
| =========                 |                                                 |
| \\      /  F ield         | OpenFOAM: The Open Source CFD Toolbox           |
|  \\    /   O peration     | Version:  2312                                  |
|   \\  /    A nd           | Website:  www.openfoam.com                      |
|    \\/     M anipulation  |                                                 |
\*---------------------------------------------------------------------------*/
FoamFile
{
    version     2.0;
    format      ascii;
    arch        "LSB;label=32;scalar=64";
    class       volScalarField;
    location    "250";
    object      turbulenceProperties:L;
}
// * * * * * * * * * * * * * * * * * * * * * * * * * * * * * * * * * * * * * //

dimensions      [0 1 0 0 0 0 0];

internalField   nonuniform List<scalar> 
10720
(
0.00178899
0.00171324
0.00164686
0.00158326
0.00154539
0.0015252
0.00152693
0.00155514
0.00161191
0.00170007
0.00182521
0.00199337
0.00221094
0.00249241
0.00286013
0.00334525
0.00400907
0.00491174
0.00628025
0.00817141
0.0117102
0.0166919
0.0290753
0.0466841
0.0546814
0.0564587
0.0575693
0.0591472
0.0605722
0.0614304
0.0618296
0.062023
0.0621641
0.0623197
0.0625583
0.0629212
0.0638123
0.0646364
0.0650139
0.0018826
0.00198081
0.00214018
0.00233241
0.00260273
0.00298912
0.00351416
0.00403353
0.0039701
0.0034811
0.00297255
0.00260116
0.0023775
0.00228695
0.00231402
0.00244693
0.00268209
0.0030278
0.0035074
0.00416034
0.00506165
0.00630286
0.00810002
0.0106564
0.0146859
0.0206327
0.0304442
0.0433099
0.0512756
0.0542886
0.0551795
0.0555188
0.0557283
0.0558724
0.0559807
0.0560832
0.0562074
0.0564337
0.0565284
0.00386717
0.00387783
0.00390025
0.0039579
0.00405243
0.00416999
0.00432269
0.00451614
0.00473541
0.00498434
0.00526237
0.00548417
0.00552502
0.00534521
0.00500148
0.00478939
0.00499004
0.00555587
0.00656993
0.00777052
0.0101205
0.0130531
0.0187007
0.0300928
0.0414617
0.0541339
0.0689948
0.0852721
0.101106
0.115475
0.129156
0.14293
0.155663
0.166438
0.175174
0.181939
0.186182
0.187319
0.181231
0.00388503
0.00391204
0.00396863
0.00405729
0.00418851
0.00438237
0.00464781
0.00495703
0.00530269
0.00572795
0.00624547
0.00682954
0.00747734
0.00820263
0.00901998
0.00994379
0.0110089
0.0122578
0.0138305
0.0160376
0.0198653
0.028219
0.0605601
0.234449
0.116845
0.0106135
0.0213787
0.0578524
0.107136
0.156021
0.194568
0.215834
0.222318
0.221013
0.217001
0.212393
0.207397
0.198315
0.175204
0.00473341
0.00475247
0.00480727
0.00489467
0.0049914
0.00510459
0.00522723
0.00534553
0.00545415
0.00554343
0.005616
0.00565981
0.00567318
0.00565262
0.00564458
0.00572101
0.00618825
0.0065609
0.0137449
3.23022
0.00847015
0.00898276
0.0640795
0.0152264
0.0249586
0.0337509
0.044161
0.0586598
0.0771912
0.0982262
0.119468
0.139287
0.158345
0.177784
0.197352
0.216236
0.23337
0.248948
0.244996
0.00471487
0.00471747
0.00472351
0.00476577
0.00484398
0.00498466
0.00520069
0.00548567
0.00579775
0.0061818
0.00669434
0.00733574
0.00809952
0.00899184
0.0100028
0.0111261
0.0123233
0.0135431
0.0146998
0.0157424
0.0166074
0.0172554
0.0176538
0.0178922
0.0179264
0.0179597
0.0174209
0.022848
0.015718
0.0446917
0.101287
0.175185
0.221657
0.24157
0.252157
0.258862
0.261743
0.273203
0.246063
0.00514918
0.00514383
0.00515679
0.0051784
0.00522387
0.00529385
0.00538516
0.00550609
0.00565483
0.00583428
0.00604754
0.00630017
0.00660058
0.00695718
0.00738485
0.0079309
0.00861888
0.0093411
0.0106549
0.0150666
0.0678854
0.034672
0
0.00627355
0.015131
0.0281971
0.0318214
0.0561266
0.0717473
0.0819026
0.103039
0.127471
0.152022
0.175204
0.19821
0.222494
0.247089
0.272295
0.279968
0.00517703
0.00522011
0.00528996
0.0053779
0.00549463
0.00565959
0.00587236
0.0061274
0.00643167
0.0068193
0.0073041
0.00786729
0.00849097
0.00916705
0.00988455
0.0106364
0.0114028
0.0121665
0.0129045
0.0136158
0.0142894
0.0149396
0.0156045
0.0164095
0.0173817
0.0183367
0.019172
0.019852
0.0207711
0.0221807
0.0255361
0.0321959
0.045858
0.156713
0.239721
0.234392
0.245884
0.257488
0.24238
0.00594533
0.0059506
0.00597399
0.00601638
0.00608378
0.00617888
0.00630001
0.00644952
0.0066275
0.00682767
0.00704701
0.00727861
0.00751127
0.0077341
0.00793554
0.00811778
0.00832458
0.00860587
0.00892564
0.00946003
0.0104597
0.0140679
0.0706777
0.192387
0
0
0.0113938
0.0127343
0.0197111
0.0154955
0.0340765
0.124282
0.188039
0.185
0.202461
0.224195
0.249481
0.279796
0.29743
0.00595303
0.00597417
0.006017
0.00608751
0.00619132
0.00634788
0.00655182
0.0067943
0.00708502
0.00745151
0.00790041
0.0084288
0.00903572
0.00972615
0.0105022
0.0113634
0.0123022
0.0133025
0.0143384
0.0153893
0.0164301
0.0174554
0.0184892
0.0196685
0.0211327
0.0228224
0.0244978
0.0258946
0.0266007
0.0276287
0.0253451
0.058442
0.0235848
0.039616
0.0728746
0.0780478
0.113369
0.109978
0.192238
0.00656668
0.00655273
0.00655406
0.0065658
0.0065983
0.006652
0.00672603
0.0068255
0.00695154
0.00710462
0.00728818
0.00750359
0.00775204
0.00803598
0.00835784
0.00873591
0.00921285
0.00979335
0.010444
0.0111651
0.0117762
0.0125265
0.0135059
0.0248143
0.109779
0.194125
0.409834
0
0
0.00940777
0.0157233
0.0344693
0.0157103
0.103928
0.315311
0.25043
0.25721
0.28263
0.304504
0.00659662
0.0066387
0.00670139
0.00678688
0.00690158
0.00706156
0.0072602
0.00749318
0.00777383
0.00812407
0.0085469
0.00904094
0.00960406
0.0102361
0.0109343
0.0116909
0.0124942
0.0133277
0.0141722
0.0150133
0.0158433
0.016674
0.0175444
0.0185615
0.0198304
0.0213171
0.0229295
0.0246026
0.0263291
0.0280802
0.0298935
0.0318835
0.0355389
0.0424268
0.633592
0.0484938
0.0647846
0.0602702
0.098995
0.00730109
0.00728512
0.00728258
0.00729183
0.00732105
0.00737249
0.00744628
0.00754674
0.0076761
0.00783477
0.00802483
0.00824704
0.00850028
0.00878277
0.00909263
0.00942249
0.00975483
0.0100985
0.0104886
0.0109498
0.011471
0.0119967
0.0123358
0.0132018
0.0159431
0.022396
0.0484115
0.159512
0.248916
1.48539
0
0
0.0107276
0.043821
0.0394755
0.216504
0.310958
0.293937
0.30824
0.00733124
0.00737267
0.00743424
0.00752159
0.00763969
0.00779965
0.00799196
0.0082187
0.00849218
0.0088259
0.00922287
0.00968405
0.0102107
0.0108058
0.0114706
0.0122031
0.0129995
0.0138509
0.0147443
0.0156697
0.0166192
0.0175991
0.0186424
0.0198426
0.0213112
0.0230535
0.0249994
0.0270849
0.0292864
0.0315315
0.0335946
0.0351764
0.036247
0.0380616
0.0441939
0.181012
0.328386
3.53823
0.0219806
0.00801962
0.00799239
0.00797636
0.00796993
0.00798086
0.00801096
0.00805966
0.00813167
0.00822891
0.00835184
0.00850398
0.00868663
0.00890116
0.00914972
0.0094343
0.00975593
0.0101273
0.0105727
0.0110892
0.0116537
0.0122391
0.012787
0.0132271
0.0135427
0.0141491
0.0153457
0.0174669
0.0215172
0.0289358
0.171211
0.235138
2.29859
0
0
0.024168
0.0841033
0.182052
0.336402
0.315916
0.00806106
0.00811185
0.00818149
0.00827674
0.008401
0.00856299
0.00875112
0.00897357
0.00924084
0.00955965
0.00993484
0.0103677
0.0108605
0.0114174
0.0120396
0.0127252
0.0134711
0.0142683
0.0151054
0.0159729
0.0168664
0.0177937
0.0187863
0.0199201
0.0212831
0.0228845
0.0246779
0.0266326
0.0287709
0.0311255
0.0336909
0.0364771
0.0395076
0.0427968
0.0456152
0.0478307
0.0551228
0.289367
0.063179
0.00878061
0.00874622
0.00872141
0.00870603
0.00870658
0.00872533
0.00876216
0.00882195
0.00890667
0.00901764
0.00915813
0.00932997
0.00953478
0.00977476
0.0100509
0.0103654
0.0107182
0.0111012
0.0115174
0.011972
0.0124626
0.0129702
0.0134768
0.013963
0.0145125
0.0152902
0.0163003
0.0175655
0.0191357
0.0224323
0.0280923
0.236826
0.345316
0
0
0
0.0897527
0.298342
0.332768
0.0088284
0.0088847
0.0089591
0.00906086
0.00918983
0.00935309
0.00953917
0.00975883
0.0100203
0.0103263
0.0106818
0.011089
0.011551
0.0120728
0.0126573
0.013305
0.0140152
0.0147838
0.0156046
0.0164717
0.0173835
0.0183494
0.0193992
0.0205966
0.0220187
0.0236901
0.0255783
0.0276539
0.0299277
0.0324147
0.0350788
0.0377916
0.0403435
0.042466
0.0438702
0.0436974
0.0421526
0.0408537
0.454818
0.00956316
0.00951965
0.00948381
0.00945635
0.00944365
0.00944693
0.00946668
0.00950768
0.00957144
0.0096594
0.00977504
0.00992011
0.0100965
0.0103068
0.010553
0.0108379
0.0111625
0.0115355
0.0119652
0.0124436
0.01295
0.0134606
0.0139643
0.0144946
0.015129
0.0159524
0.0169492
0.0180129
0.0190273
0.0200184
0.0211366
0.0245723
0.0392747
0.221396
16.9715
0
0.0214477
0.0792897
0.356559
0.00961974
0.00968322
0.00976416
0.00987365
0.0100081
0.0101723
0.0103584
0.0105768
0.0108326
0.0111273
0.0114657
0.0118499
0.0122841
0.012774
0.0133231
0.0139332
0.0146058
0.0153382
0.0161273
0.0169695
0.0178648
0.0188229
0.0198706
0.0210589
0.0224538
0.0240802
0.0259162
0.0279405
0.0301687
0.0326304
0.0353278
0.038228
0.041286
0.0442831
0.0469347
0.0475335
0.0478186
0.037438
0.0655308
0.0103786
0.0103266
0.0102806
0.0102422
0.0102178
0.0102078
0.0102137
0.0102395
0.0102873
0.0103584
0.0104566
0.0105836
0.0107418
0.0109342
0.0111628
0.0114299
0.0117382
0.012088
0.0124785
0.0129089
0.0133703
0.0138517
0.0143469
0.0148843
0.0155392
0.0163895
0.017442
0.0185901
0.0197017
0.0206675
0.0215092
0.0221272
0.0236177
0.030083
3.71321
0.0627946
0
0.0685459
0.320553
0.0104434
0.0105138
0.0106007
0.0107179
0.0108581
0.0110234
0.0112108
0.0114291
0.0116798
0.0119644
0.0122879
0.012652
0.0130609
0.0135211
0.0140372
0.0146124
0.01525
0.0159505
0.0167128
0.0175366
0.0184253
0.0193894
0.0204535
0.0216625
0.0230719
0.0247094
0.0265654
0.028625
0.0309011
0.0334165
0.0361638
0.0390805
0.0420386
0.0447591
0.0469527
0.0472584
0.0473237
0.0399174
0.0355752
0.0112257
0.0111644
0.0111077
0.011058
0.011021
0.0109972
0.010988
0.0109978
0.0110282
0.0110806
0.0111587
0.0112644
0.0114001
0.0115687
0.0117727
0.0120146
0.0122968
0.0126202
0.0129899
0.0134064
0.0138578
0.0143315
0.0148229
0.0153564
0.0159979
0.0168206
0.017842
0.0189874
0.0201489
0.0212562
0.0223155
0.0231159
0.0236576
0.0239804
0.029249
0.234246
0
0.0363621
0.21341
0.0112991
0.0113772
0.0114705
0.0115956
0.0117418
0.0119093
0.0120989
0.0123176
0.012564
0.0128403
0.0131505
0.0134965
0.0138827
0.0143164
0.0148023
0.0153446
0.0159491
0.0166177
0.0173528
0.0181555
0.0190303
0.0199888
0.0210552
0.0222684
0.023673
0.0252974
0.0271393
0.0291901
0.0314623
0.0339789
0.0367432
0.039712
0.0428048
0.0457882
0.0483279
0.049062
0.0487841
0.0430457
0.0340545
0.0121081
0.0120373
0.0119698
0.0119086
0.0118595
0.0118223
0.0117986
0.0117929
0.011807
0.0118422
0.0119021
0.0119886
0.0121044
0.0122525
0.0124354
0.0126556
0.0129161
0.013217
0.0135606
0.0139473
0.0143711
0.0148237
0.0153046
0.015834
0.0164651
0.0172599
0.0182375
0.0193406
0.0204778
0.0216027
0.0227278
0.0238117
0.0247058
0.0251284
0.0246522
0.0337833
6.45555
0.0225278
0.122729
0.0121902
0.0122763
0.0123765
0.0125093
0.0126617
0.0128323
0.0130249
0.0132448
0.0134879
0.0137568
0.0140553
0.0143856
0.0147518
0.015161
0.0156195
0.0161323
0.0167057
0.017344
0.0180517
0.0188329
0.0196942
0.0206483
0.0217183
0.0229377
0.0243454
0.0259684
0.0278124
0.0298745
0.0321677
0.0347145
0.0375185
0.0405346
0.0436662
0.0466685
0.0491959
0.0500228
0.0496728
0.0448442
0.0355314
0.0130276
0.0129471
0.0128684
0.0127954
0.0127338
0.0126827
0.0126444
0.0126233
0.0126209
0.0126388
0.0126803
0.0127475
0.0128428
0.0129693
0.0131294
0.0133262
0.0135625
0.0138385
0.0141569
0.0145202
0.0149245
0.0153612
0.0158313
0.0163528
0.0169701
0.0177365
0.0186711
0.0197286
0.0208284
0.0219271
0.0230295
0.0241408
0.0252087
0.0261322
0.0263348
0.0244518
0.233824
0.0440688
0.0622057
0.0131189
0.0132132
0.013321
0.0134617
0.0136204
0.0137954
0.013992
0.014213
0.0144538
0.0147167
0.0150054
0.0153215
0.0156697
0.0160575
0.0164906
0.0169757
0.0175206
0.0181304
0.0188115
0.0195705
0.0204166
0.0213632
0.0224324
0.0236532
0.0250591
0.0266772
0.0285172
0.0305819
0.0328857
0.0354511
0.0382854
0.0413512
0.0445677
0.0477084
0.0504295
0.0514771
0.0512501
0.0466108
0.0374503
0.0139867
0.0138964
0.013806
0.0137213
0.0136469
0.0135817
0.0135289
0.0134925
0.0134738
0.0134747
0.0134982
0.0135464
0.0136219
0.0137276
0.0138664
0.0140409
0.0142537
0.0145065
0.0147999
0.0151368
0.0155177
0.0159345
0.0163897
0.0168999
0.0175015
0.0182401
0.0191344
0.0201494
0.0212154
0.0222883
0.0233653
0.024441
0.0255138
0.026434
0.0278037
0.0254008
0.0358163
0.969317
0.0202708
0.014088
0.0141907
0.0143066
0.0144555
0.0146209
0.0148013
0.0150025
0.0152253
0.0154645
0.0157225
0.0160026
0.0163068
0.0166393
0.0170077
0.0174185
0.0178783
0.0183962
0.0189793
0.0196355
0.0203732
0.0212028
0.0221389
0.023204
0.0244262
0.0258334
0.0274495
0.029289
0.0313608
0.0336812
0.0362734
0.0391483
0.042273
0.0455707
0.0488181
0.0516752
0.0529001
0.0528061
0.048463
0.0394291
0.0149882
0.0148875
0.0147853
0.0146884
0.0146007
0.0145213
0.0144536
0.0144017
0.0143666
0.0143503
0.014356
0.0143856
0.0144415
0.0145267
0.0146437
0.0147953
0.0149845
0.0152133
0.0154816
0.0157934
0.0161513
0.0165488
0.0169881
0.0174838
0.0180675
0.0187777
0.0196324
0.0206049
0.0216368
0.0226854
0.0237429
0.0247942
0.0258442
0.0267215
0.0279575
0.0278796
0.0259251
1.79809
0.0536985
0.0150996
0.0152117
0.0153359
0.0154936
0.0156657
0.0158526
0.0160593
0.0162845
0.0165231
0.0167774
0.0170506
0.0173441
0.0176626
0.0180141
0.0184046
0.0188423
0.0193358
0.019894
0.0205262
0.0212426
0.0220556
0.0229807
0.0240407
0.0252606
0.0266662
0.0282798
0.0301194
0.0321979
0.0345346
0.0371541
0.0400714
0.0432607
0.0466559
0.0500468
0.0531002
0.0545651
0.0546182
0.0505401
0.0415276
0.0160349
0.0159232
0.0158089
0.0156992
0.015598
0.0155041
0.0154212
0.0153534
0.0153021
0.0152689
0.015257
0.0152682
0.0153044
0.015369
0.0154645
0.0155938
0.0157597
0.0159648
0.0162086
0.0164951
0.0168286
0.0172052
0.0176263
0.0181048
0.018668
0.0193492
0.0201651
0.0210956
0.0220924
0.0231154
0.0241535
0.0251909
0.0262151
0.0271435
0.0279359
0.0296777
0.0252941
0.757281
1.81303
0.0161564
0.0162783
0.0164118
0.0165786
0.016758
0.0169523
0.0171653
0.0173935
0.0176324
0.0178842
0.0181516
0.0184365
0.0187434
0.0190797
0.0194526
0.0198697
0.0203414
0.0208764
0.0214861
0.0221817
0.0229773
0.0238905
0.0249439
0.0261613
0.027565
0.029178
0.0310192
0.0331064
0.0354623
0.0381134
0.0410795
0.0443434
0.0478485
0.0513961
0.0546617
0.0563901
0.0566079
0.0527987
0.0438051
0.0171294
0.0170063
0.0168796
0.0167564
0.0166415
0.0165325
0.0164341
0.0163504
0.0162825
0.0162321
0.0162024
0.0161948
0.0162118
0.0162563
0.0163307
0.0164378
0.0165804
0.0167616
0.016981
0.0172424
0.017551
0.017906
0.0183074
0.0187664
0.0193071
0.0199584
0.0207358
0.0216247
0.0225852
0.0235808
0.024597
0.0256215
0.0266239
0.0275999
0.028232
0.0300692
0.0269126
0.0438528
0.752418
0.0172617
0.0173937
0.0175372
0.0177136
0.0179007
0.0181034
0.0183234
0.0185556
0.0187958
0.0190463
0.0193094
0.019587
0.0198838
0.0202075
0.0205648
0.0209642
0.0214161
0.0219302
0.0225188
0.023195
0.0239736
0.024873
0.0259172
0.0271311
0.0285354
0.0301483
0.0319921
0.0340894
0.0364663
0.0391525
0.0421734
0.045522
0.0491532
0.0528853
0.0564059
0.0584472
0.0588554
0.0552724
0.0462902
0.0182746
0.0181401
0.018
0.0178632
0.0177337
0.0176093
0.0174948
0.0173949
0.0173101
0.0172424
0.0171949
0.0171692
0.017167
0.0171915
0.0172447
0.0173297
0.0174492
0.0176062
0.0178016
0.0180379
0.0183212
0.0186538
0.0190338
0.0194711
0.0199875
0.0206083
0.0213478
0.0221955
0.0231188
0.0240851
0.0250779
0.0260858
0.0270747
0.0280515
0.0287601
0.029997
0.0292815
0.0301071
0.114783
0.0184182
0.018561
0.0187151
0.0189016
0.0190975
0.0193093
0.0195371
0.019774
0.0200167
0.0202669
0.020527
0.020799
0.0210877
0.0214007
0.0217449
0.0221286
0.0225629
0.0230584
0.0236277
0.0242848
0.025047
0.025934
0.0269704
0.0281794
0.0295811
0.0311945
0.033043
0.0351531
0.0375545
0.0402812
0.0433647
0.0468104
0.0505861
0.0545315
0.058349
0.0607539
0.0613851
0.0579951
0.0490082
0.0194739
0.0193273
0.0191734
0.0190223
0.0188778
0.0187373
0.0186065
0.0184897
0.0183878
0.0183026
0.0182372
0.0181929
0.0181714
0.0181756
0.0182078
0.0182707
0.0183674
0.0185004
0.0186722
0.0188837
0.0191413
0.01945
0.0198075
0.0202217
0.0207122
0.0213017
0.0220035
0.0228103
0.023696
0.0246317
0.0256
0.0265882
0.0275688
0.0285225
0.0293563
0.0301369
0.0310047
0.0293754
0.043376
0.0196293
0.0197835
0.0199487
0.0201456
0.0203518
0.0205733
0.0208096
0.0210525
0.0212987
0.0215499
0.0218084
0.0220764
0.0223587
0.0226628
0.0229957
0.0233663
0.0237853
0.0242639
0.024816
0.0254562
0.0262023
0.0270759
0.0281035
0.029308
0.0307083
0.0323241
0.0341795
0.0363046
0.0387338
0.0415059
0.0446602
0.0482163
0.0521574
0.0563513
0.06052
0.0633569
0.0642544
0.0609996
0.0519705
0.0207305
0.020571
0.0204029
0.0202369
0.0200768
0.0199196
0.019772
0.019638
0.0195185
0.0194155
0.0193318
0.0192687
0.019228
0.0192122
0.0192235
0.0192646
0.0193385
0.0194479
0.0195956
0.0197816
0.0200132
0.0202972
0.0206309
0.0210205
0.0214838
0.0220415
0.0227058
0.0234722
0.0243198
0.0252236
0.0261663
0.0271334
0.0281056
0.0290399
0.02995
0.0305838
0.0318222
0.0308034
0.0337768
0.0208981
0.0210645
0.0212413
0.0214492
0.0216668
0.021899
0.0221446
0.0223943
0.0226451
0.0228985
0.0231572
0.023423
0.0237005
0.0239977
0.0243214
0.0246808
0.025087
0.025551
0.0260872
0.0267117
0.0274438
0.0283051
0.029323
0.0305227
0.0319238
0.0335436
0.0354076
0.0375502
0.0400109
0.0428347
0.0460696
0.0497517
0.0538835
0.058368
0.0629527
0.0663058
0.0675259
0.0643438
0.0552113
0.0220478
0.0218751
0.0216917
0.0215104
0.0213338
0.0211594
0.0209944
0.0208426
0.020705
0.0205838
0.0204818
0.0203998
0.0203397
0.0203039
0.0202941
0.0203134
0.0203644
0.0204499
0.0205733
0.0207343
0.0209402
0.0211985
0.0215073
0.0218713
0.022306
0.0228311
0.023458
0.0241843
0.0249935
0.0258643
0.0267801
0.0277256
0.0286862
0.0296126
0.0305474
0.031223
0.0323021
0.0325203
0.032622
0.022228
0.0224076
0.0225966
0.0228163
0.023046
0.0232899
0.0235457
0.0238034
0.02406
0.0243173
0.0245772
0.024842
0.0251167
0.0254091
0.025726
0.0260762
0.0264714
0.0269233
0.0274461
0.0280568
0.0287751
0.0296254
0.0306357
0.0318319
0.033233
0.0348575
0.0367328
0.0388964
0.0413937
0.0442765
0.0476032
0.0514282
0.0557801
0.0606047
0.0656867
0.0696661
0.0712776
0.0680845
0.0587572
0.0234294
0.0232427
0.0230437
0.0228462
0.0226523
0.0224603
0.0222769
0.022107
0.0219507
0.0218109
0.0216899
0.0215887
0.0215088
0.0214528
0.0214221
0.0214195
0.0214478
0.0215097
0.0216088
0.0217451
0.021925
0.0221565
0.0224395
0.0227768
0.0231821
0.0236741
0.0242638
0.0249501
0.0257207
0.0265575
0.0274454
0.028369
0.0293158
0.0302411
0.0311777
0.031949
0.0328498
0.0338765
0.0335127
0.0236227
0.023816
0.0240181
0.0242505
0.0244934
0.0247497
0.0250171
0.0252838
0.0255475
0.0258099
0.0260729
0.0263386
0.0266123
0.0269013
0.0272129
0.0275566
0.0279433
0.0283848
0.0288963
0.0294953
0.0302021
0.0310422
0.0320454
0.0332386
0.0346415
0.0362724
0.0381624
0.0403513
0.0428902
0.0458391
0.0492692
0.0532567
0.0578621
0.0630856
0.0687654
0.0735175
0.0756205
0.0722972
0.0626347
0.024879
0.0246777
0.0244625
0.0242477
0.0240363
0.0238256
0.0236234
0.0234344
0.0232593
0.0231002
0.0229601
0.0228393
0.0227397
0.0226631
0.0226111
0.0225866
0.022592
0.0226302
0.0227047
0.0228161
0.0229699
0.0231739
0.0234303
0.0237399
0.0241153
0.0245739
0.0251266
0.0257733
0.0265052
0.0273073
0.0281661
0.0290671
0.029999
0.030925
0.0318626
0.0327167
0.0335635
0.0349068
0.0349244
0.0250865
0.0252935
0.0255097
0.0257556
0.0260126
0.0262825
0.0265624
0.0268397
0.027112
0.027381
0.0276482
0.0279162
0.0281904
0.0284786
0.0287876
0.0291265
0.0295066
0.0299401
0.0304424
0.0310314
0.0317281
0.0325594
0.0335569
0.0347488
0.0361557
0.0377971
0.0397035
0.0419215
0.0445076
0.0475309
0.0510774
0.055249
0.0601446
0.0658348
0.0722388
0.0779605
0.0806911
0.0770855
0.066888
0.0264007
0.0261842
0.0259521
0.025719
0.0254893
0.0252591
0.0250373
0.0248288
0.0246338
0.0244551
0.0242952
0.0241545
0.0240346
0.0239373
0.0238642
0.0238175
0.0237999
0.0238144
0.0238641
0.0239508
0.0240779
0.0242543
0.0244838
0.0247654
0.0251099
0.0255346
0.0260501
0.0266575
0.0273506
0.0281177
0.0289466
0.0298243
0.030741
0.0316664
0.0326109
0.0335232
0.034411
0.0358419
0.0363811
0.026623
0.0268446
0.0270758
0.0273359
0.0276079
0.0278927
0.028186
0.0284751
0.0287573
0.0290344
0.0293078
0.0295802
0.0298572
0.0301458
0.0304536
0.0307901
0.0311661
0.0315938
0.0320889
0.0326703
0.0333595
0.0341842
0.0351774
0.0363692
0.0377811
0.0394351
0.0413619
0.0436136
0.0462528
0.04936
0.0530371
0.0574154
0.0626424
0.0688785
0.0761655
0.0831297
0.0866893
0.0825609
0.0715442
0.0279989
0.0277662
0.0275163
0.0272645
0.0270153
0.026765
0.0265229
0.0262942
0.0260785
0.0258796
0.0256993
0.0255383
0.0253976
0.0252795
0.0251848
0.0251158
0.0250752
0.0250657
0.0250905
0.0251523
0.0252529
0.025401
0.0256028
0.0258555
0.026169
0.0265598
0.0270386
0.0276072
0.0282615
0.0289931
0.0297916
0.0306456
0.0315463
0.0324715
0.0334265
0.0343841
0.0353511
0.0368259
0.0377941
0.0282363
0.0284733
0.0287206
0.0289956
0.0292837
0.0295846
0.0298924
0.0301948
0.0304884
0.0307751
0.0310562
0.0313347
0.031616
0.0319075
0.0322164
0.032552
0.0329259
0.0333505
0.0338408
0.0344163
0.0350997
0.0359202
0.0369121
0.0381068
0.039527
0.0411949
0.0431464
0.0454361
0.048135
0.0513352
0.0551569
0.0597659
0.0653707
0.0722434
0.0806086
0.0891975
0.0938937
0.0888799
0.0766466
0.029678
0.0294282
0.0291595
0.0288882
0.0286189
0.0283475
0.0280843
0.0278343
0.0275976
0.0273775
0.0271763
0.0269944
0.0268327
0.0266931
0.0265764
0.026485
0.0264213
0.0263876
0.0263876
0.026424
0.0264979
0.0266178
0.0267911
0.0270146
0.0272969
0.0276539
0.0280961
0.0286263
0.0292423
0.0299381
0.0307057
0.0315358
0.0324206
0.0333439
0.034313
0.0353113
0.0363625
0.0379003
0.0392013
0.0299309
0.0301841
0.0304484
0.0307393
0.0310445
0.0313628
0.0316865
0.0320031
0.0323096
0.0326078
0.0328985
0.0331847
0.0334722
0.0337682
0.0340805
0.0344178
0.0347918
0.0352145
0.0357026
0.036275
0.0369549
0.0377727
0.0387651
0.0399642
0.0413951
0.0430808
0.0450603
0.0473932
0.0501588
0.0534608
0.0574422
0.0623069
0.068336
0.0759457
0.0856313
0.0963925
0.102719
0.0962293
0.082221
0.0314423
0.0311751
0.0308863
0.0305949
0.0303044
0.0300108
0.0297259
0.0294536
0.0291952
0.0289531
0.0287305
0.028527
0.028344
0.0281825
0.0280437
0.0279296
0.0278423
0.0277845
0.0277592
0.0277698
0.0278168
0.0279086
0.028053
0.0282473
0.0284983
0.0288213
0.0292273
0.0297195
0.0302976
0.0309578
0.0316942
0.0324996
0.0333695
0.03429
0.035274
0.0363127
0.037445
0.0390652
0.0406425
0.0317119
0.0319818
0.0322638
0.0325717
0.032895
0.0332316
0.0335726
0.033905
0.0342261
0.0345373
0.0348394
0.0351354
0.0354312
0.0357336
0.0360507
0.0363917
0.0367678
0.0371917
0.0376795
0.0382509
0.0389301
0.039748
0.0407431
0.0419494
0.0433936
0.0451006
0.0471123
0.0494933
0.0523315
0.0557441
0.0598984
0.065042
0.0715399
0.0799921
0.0912868
0.105016
0.113827
0.104845
0.0882889
0.0332972
0.0330113
0.0327021
0.0323893
0.0320767
0.0317604
0.0314523
0.0311572
0.030876
0.0306115
0.0303666
0.030141
0.0299357
0.0297518
0.0295904
0.0294531
0.029342
0.0292598
0.0292092
0.0291938
0.029214
0.0292775
0.0293929
0.0295574
0.0297772
0.030067
0.0304373
0.030892
0.0314325
0.0320573
0.0327627
0.0335433
0.0343973
0.0353167
0.0363145
0.0373963
0.0386065
0.0403184
0.0421414
0.0335843
0.0338713
0.0341718
0.0344982
0.0348404
0.0351962
0.035556
0.0359056
0.0362428
0.0365685
0.0368837
0.0371914
0.0374973
0.0378086
0.0381326
0.0384791
0.0388596
0.0392866
0.0397764
0.0403492
0.0410295
0.04185
0.0428504
0.0440669
0.045528
0.0472591
0.0493065
0.0517399
0.0546561
0.0581874
0.0625254
0.0679675
0.0749751
0.0843727
0.0976019
0.115458
0.128331
0.114985
0.0948392
0.0352479
0.0349422
0.0346117
0.0342765
0.0339408
0.0336008
0.0332685
0.0329497
0.0326447
0.032357
0.0320888
0.0318404
0.0316123
0.0314058
0.0312211
0.0310606
0.0309254
0.0308183
0.030742
0.0307005
0.0306938
0.0307291
0.0308152
0.03095
0.0311388
0.0313955
0.0317305
0.0321487
0.0326524
0.0332421
0.0339165
0.0346729
0.0355113
0.0364286
0.0374415
0.0385657
0.0398525
0.0416568
0.0437038
0.0355532
0.035858
0.0361776
0.036524
0.0368859
0.037262
0.0376417
0.0380102
0.0383648
0.0387071
0.0390374
0.0393581
0.0396758
0.0399979
0.0403311
0.0406855
0.0410724
0.0415042
0.0419981
0.0425746
0.0432587
0.0440843
0.0450928
0.0463218
0.0478015
0.0495607
0.051647
0.054137
0.0571359
0.0607916
0.0653219
0.0710752
0.0786215
0.0890436
0.104531
0.128162
0.148321
0.126876
0.101808
0.0372996
0.0369735
0.0366205
0.0362621
0.0359023
0.0355372
0.0351801
0.0348364
0.0345065
0.0341946
0.0339026
0.0336306
0.0333792
0.0331492
0.0329411
0.0327563
0.0325966
0.0324646
0.0323628
0.0322948
0.032261
0.032268
0.0323246
0.0324298
0.0325882
0.0328123
0.0331126
0.033495
0.0339628
0.0345182
0.035162
0.035894
0.0367174
0.0376329
0.0386612
0.039826
0.0411895
0.0430879
0.0453362
0.0376239
0.0379477
0.0382871
0.038654
0.0390369
0.0394344
0.0398352
0.0402239
0.0405977
0.0409582
0.0413047
0.0416413
0.0419731
0.0423071
0.0426511
0.0430152
0.0434106
0.0438498
0.0443501
0.0449324
0.0456225
0.0464549
0.0474738
0.0487188
0.05022
0.0520094
0.0541374
0.0566867
0.0597713
0.0635538
0.0682792
0.0743456
0.0824371
0.0939179
0.111901
0.143455
0.178426
0.140499
0.109059
0.0394584
0.0391108
0.0387346
0.0383517
0.0379668
0.0375757
0.0371925
0.0368229
0.0364673
0.0361303
0.0358136
0.0355172
0.0352416
0.0349875
0.0347552
0.034546
0.0343616
0.0342043
0.0340763
0.0339814
0.0339205
0.0338992
0.0339267
0.0340026
0.0341308
0.0343229
0.0345896
0.034937
0.0353697
0.0358916
0.0365056
0.0372139
0.038022
0.0389364
0.0399799
0.0411862
0.0426227
0.0446123
0.0470447
0.0398027
0.0401458
0.0405061
0.0408945
0.0412993
0.0417192
0.0421423
0.0425524
0.0429468
0.0433271
0.0436923
0.0440456
0.0443931
0.0447416
0.0450987
0.0454743
0.0458797
0.0463279
0.0468366
0.0474263
0.0481242
0.0489662
0.0499977
0.0512603
0.0527862
0.0546075
0.0567796
0.0593896
0.0625603
0.0664676
0.0713823
0.0777516
0.0863648
0.0988608
0.119346
0.160848
0.23167
0.155121
0.116342
0.0417305
0.0413604
0.0409601
0.0405516
0.0401405
0.0397222
0.0393116
0.038915
0.0385327
0.0381693
0.0378269
0.0375053
0.0372048
0.036926
0.036669
0.0364348
0.0362251
0.0360417
0.0358873
0.0357657
0.0356778
0.0356284
0.0356266
0.0356737
0.0357723
0.0359335
0.0361674
0.0364809
0.0368796
0.0373689
0.0379537
0.0386389
0.0394328
0.0403457
0.0414049
0.0426511
0.0441617
0.0462392
0.0488329
0.0420955
0.0424585
0.0428408
0.0432516
0.043679
0.0441224
0.0445689
0.0450016
0.0454179
0.0458193
0.0462046
0.0465768
0.0469419
0.0473066
0.0476782
0.0480673
0.0484842
0.0489432
0.049462
0.0500615
0.0507698
0.0516229
0.0526685
0.0539503
0.0555017
0.0573572
0.059574
0.0622439
0.065497
0.0695231
0.074613
0.0812551
0.0903253
0.103681
0.126258
0.177391
0.373179
0.168506
0.1233
0.0441224
0.0437291
0.0433035
0.0428682
0.0424297
0.0419829
0.041544
0.041119
0.0407088
0.0403178
0.0399489
0.0396011
0.0392748
0.0389704
0.038688
0.0384284
0.0381929
0.0379834
0.0378027
0.037654
0.037539
0.0374614
0.0374307
0.0374495
0.0375191
0.0376497
0.0378519
0.0381329
0.038499
0.0389569
0.0395137
0.0401766
0.0409567
0.0418686
0.0429432
0.0442283
0.0458095
0.0479753
0.0507111
0.0445091
0.0448928
0.0452975
0.0457317
0.0461825
0.0466501
0.0471208
0.0475775
0.0480171
0.0484409
0.0488481
0.0492406
0.0496243
0.050007
0.050395
0.0507984
0.0512293
0.0517011
0.0522311
0.0528416
0.0535604
0.0544264
0.0554887
0.0567918
0.05837
0.0602587
0.0625182
0.065245
0.0685745
0.0727065
0.0779463
0.0848095
0.0942265
0.108164
0.131903
0.18688
0.528104
0.177055
0.12951
0.0466411
0.0462237
0.0457718
0.0453087
0.0448413
0.044365
0.0438963
0.0434418
0.0430022
0.0425827
0.042186
0.041811
0.0414579
0.0411274
0.0408189
0.0405332
0.0402713
0.0400354
0.0398278
0.0396517
0.0395096
0.0394041
0.039345
0.0393358
0.0393771
0.0394785
0.0396504
0.0399001
0.0402349
0.0406628
0.0411928
0.0418344
0.0426015
0.0435129
0.0446024
0.0459259
0.0475736
0.0498232
0.0526858
0.0470504
0.0474555
0.0478834
0.0483416
0.0488166
0.0493091
0.0498049
0.0502864
0.0507501
0.0511977
0.0516278
0.0520421
0.0524469
0.0528485
0.053254
0.0536736
0.0541197
0.0546046
0.0551472
0.0557703
0.0565018
0.0573816
0.0584598
0.059784
0.0613892
0.0633108
0.0656106
0.0683881
0.0717829
0.0759992
0.0813524
0.0883646
0.0979736
0.11211
0.135702
0.185573
0.283693
0.178603
0.134602
0.049294
0.0488517
0.0483723
0.0478802
0.0473827
0.0468753
0.0463754
0.0458897
0.0454195
0.0449707
0.044545
0.0441416
0.0437611
0.0434034
0.043068
0.0427555
0.0424669
0.0422041
0.0419693
0.0417659
0.0415966
0.0414634
0.0413761
0.0413396
0.0413536
0.041427
0.0415696
0.0417894
0.0420945
0.042494
0.0429987
0.0436202
0.0443752
0.0452862
0.0463912
0.0477503
0.0494627
0.0517906
0.0547641
0.0497269
0.0501542
0.0506057
0.0510886
0.0515883
0.0521061
0.0526279
0.0531346
0.0536235
0.0540957
0.0545499
0.0549872
0.0554135
0.0558357
0.0562602
0.0566973
0.0571587
0.0576581
0.0582149
0.0588507
0.059595
0.0604892
0.0615846
0.0629295
0.0645598
0.0665108
0.0688457
0.0716649
0.0751088
0.0793838
0.0848021
0.0918743
0.101491
0.115393
0.137552
0.17742
0.222126
0.174734
0.138379
0.0520891
0.051621
0.051113
0.0505907
0.0500617
0.0495217
0.048989
0.0484707
0.0479691
0.0474889
0.0470329
0.0466001
0.0461909
0.0458053
0.0454421
0.0451022
0.0447864
0.0444964
0.0442341
0.0440032
0.0438067
0.0436461
0.0435315
0.043468
0.0434555
0.043502
0.0436169
0.0438085
0.0440856
0.0444586
0.0449394
0.0455421
0.046286
0.0471972
0.0483174
0.0497108
0.0514841
0.053885
0.0569552
0.0525463
0.0529965
0.0534723
0.0539802
0.054505
0.0550488
0.0555966
0.0561293
0.0566436
0.0571413
0.0576202
0.0580813
0.0585309
0.0589739
0.0594177
0.0598731
0.0603511
0.0608662
0.0614366
0.0620856
0.0628437
0.0637514
0.0648629
0.0662275
0.0678797
0.069856
0.0722186
0.0750669
0.0785404
0.082841
0.0882675
0.0952988
0.10473
0.117993
0.137833
0.167899
0.192513
0.168642
0.140888
0.0550352
0.0545399
0.0540022
0.0534486
0.0528864
0.0523123
0.0517453
0.0511932
0.0506578
0.0501449
0.0496572
0.0491941
0.0487552
0.0483404
0.0479486
0.0475805
0.0472369
0.0469191
0.0466292
0.0463707
0.0461466
0.0459592
0.0458181
0.0457286
0.0456908
0.0457116
0.0458004
0.0459654
0.0462164
0.0465645
0.0470232
0.0476088
0.0483427
0.0492545
0.050389
0.0518152
0.0536452
0.0561136
0.0592675
0.0555169
0.0559911
0.0564917
0.0570247
0.0575747
0.0581445
0.0587185
0.0592771
0.0598172
0.060341
0.060845
0.0613305
0.0618031
0.0622681