/*--------------------------------*- C++ -*----------------------------------*\
| =========                 |                                                 |
| \\      /  F ield         | OpenFOAM: The Open Source CFD Toolbox           |
|  \\    /   O peration     | Version:  2312                                  |
|   \\  /    A nd           | Website:  www.openfoam.com                      |
|    \\/     M anipulation  |                                                 |
\*---------------------------------------------------------------------------*/
FoamFile
{
    version     2.0;
    format      ascii;
    arch        "LSB;label=32;scalar=64";
    class       volSymmTensorField;
    location    "250";
    object      turbulenceProperties:R;
}
// * * * * * * * * * * * * * * * * * * * * * * * * * * * * * * * * * * * * * //

dimensions      [0 2 -2 0 0 0 0];

internalField   nonuniform List<symmTensor> 
10720
(
(0.0145023 0.00306983 -1.19603e-21 0.0120436 -4.48954e-20 0.0134207)
(0.0172906 0.0036469 7.96027e-22 0.0136481 5.09401e-20 0.0155792)
(0.0210833 0.00423551 1.24167e-20 0.0153293 5.25031e-20 0.0184358)
(0.026256 0.00499745 6.03035e-20 0.0176224 4.92509e-19 0.0222359)
(0.0326282 0.00571614 -2.53335e-19 0.0200562 -1.0151e-18 0.0266774)
(0.0409616 0.00622655 -3.09982e-19 0.022786 -6.31866e-19 0.0323773)
(0.0517423 0.00649684 1.12499e-19 0.0261215 1.08784e-20 0.0395745)
(0.0652023 0.00618257 6.25828e-20 0.0300894 9.89546e-20 0.0484336)
(0.0822031 0.00491769 1.66184e-19 0.0351361 -1.34237e-19 0.0596987)
(0.103585 0.00243377 -2.593e-20 0.0419379 -2.60153e-20 0.0740225)
(0.130632 -0.00179519 3.01615e-18 0.051368 1.21577e-18 0.0925493)
(0.165488 -0.00835581 -7.26619e-19 0.0647993 -5.58067e-19 0.117035)
(0.211112 -0.018177 1.48346e-18 0.0841034 -2.22726e-18 0.149916)
(0.27238 -0.0328516 7.29366e-19 0.112301 1.56494e-18 0.195195)
(0.357579 -0.0550381 1.1523e-18 0.154547 -2.04292e-18 0.259688)
(0.479551 -0.0890717 4.74468e-19 0.219211 7.23288e-18 0.354073)
(0.663297 -0.143547 3.65956e-17 0.322821 1.94854e-17 0.499452)
(0.940352 -0.230819 -1.02942e-17 0.48907 1.38454e-17 0.72347)
(1.41722 -0.387106 -4.13217e-18 0.78967 -6.70854e-17 1.11631)
(2.14172 -0.640292 2.22406e-18 1.27873 -4.32054e-19 1.72844)
(3.74907 -1.21198 -6.58893e-17 2.39883 -8.95216e-17 3.10298)
(6.1058 -2.1148 1.5757e-16 4.18891 4.769e-16 5.18653)
(13.8269 -5.12456 -2.56949e-16 10.248 -9.29433e-16 12.1156)
(26.0092 -10.3185 4.52621e-16 21.0673 1.24106e-16 23.6634)
(27.6939 -11.6703 -2.48366e-16 24.5904 -1.19172e-17 26.2038)
(25.5704 -11.2569 2.0985e-17 24.5258 -1.27958e-15 25.0308)
(24.4638 -11.0731 2.69881e-16 24.7855 -6.42556e-17 24.5799)
(24.393 -11.2562 1.95459e-16 25.7506 4.12274e-16 25.0346)
(24.4776 -11.4702 1.15112e-15 26.7717 5.59447e-16 25.6)
(24.181 -11.4822 1.05071e-15 27.3399 4.50965e-15 25.748)
(23.4505 -11.2663 -2.01406e-15 27.3732 -1.73931e-15 25.4145)
(22.3738 -10.8581 -2.18069e-15 26.9205 -3.02222e-15 24.6629)
(20.9279 -10.2435 -9.25239e-16 25.9116 -3.97268e-15 23.4422)
(19.1414 -9.43612 -2.97044e-15 24.349 -5.58058e-15 21.7683)
(16.9959 -8.42771 1.07467e-15 22.1743 2.92371e-15 19.6065)
(14.5521 -7.24898 1.80764e-16 19.4274 2.16732e-15 17.0063)
(11.3891 -5.69574 -4.64298e-17 15.5409 3.71729e-18 13.4852)
(8.37008 -4.19136 -1.79562e-15 11.5579 -1.10176e-16 9.96668)
(1.85819 -0.936148 -3.61e-16 2.81228 -1.69576e-15 2.33411)
(0.0120332 0.00257443 8.6524e-22 0.0106554 -3.09873e-21 0.0113983)
(0.0101337 0.00212529 -4.47037e-21 0.00934351 4.53962e-21 0.00982838)
(0.00808556 0.00164738 -2.32687e-20 0.00783007 -1.61816e-20 0.00800238)
(0.00638795 0.00124025 2.26808e-20 0.00644776 -3.241e-20 0.00644826)
(0.00486541 0.000879618 -2.58905e-20 0.00505324 -2.5809e-20 0.00497445)
(0.00355396 0.000587024 -1.21174e-19 0.00372817 1.47125e-19 0.0036408)
(0.00253107 0.000377687 3.67854e-20 0.00261829 1.23436e-19 0.00255836)
(0.00194618 0.000261558 -1.78556e-20 0.00191699 -1.59916e-19 0.00190837)
(0.00211271 0.000277913 8.98053e-20 0.00191789 2.22374e-21 0.00199756)
(0.00295615 0.000385077 -7.69347e-20 0.00246923 -2.21232e-20 0.00271011)
(0.00451179 0.000623508 7.74701e-20 0.00351917 1.86762e-19 0.00402516)
(0.00693154 0.00109438 1.82185e-19 0.00509396 -8.52887e-20 0.00603158)
(0.0105068 0.00197044 -2.02424e-19 0.00732523 -5.83927e-20 0.00895131)
(0.0156659 0.00349356 1.34294e-20 0.0104626 9.6277e-20 0.0131292)
(0.0229204 0.00591501 8.37972e-19 0.0148905 1.78394e-19 0.0190055)
(0.0330065 0.00952621 8.31265e-19 0.0212976 -1.75458e-19 0.0273023)
(0.0472444 0.0147477 3.85346e-19 0.0308099 6.01075e-19 0.0392334)
(0.0681389 0.0224666 2.84286e-19 0.0454295 6.03843e-19 0.0570693)
(0.10037 0.0344256 3.04344e-19 0.0687472 -1.71916e-19 0.0849495)
(0.152242 0.0539095 5.79868e-19 0.107382 2.53677e-20 0.130386)
(0.24021 0.0874631 -8.78087e-19 0.174604 -5.32603e-18 0.208282)
(0.393813 0.147305 -3.10561e-18 0.295506 -1.02442e-19 0.346116)
(0.682698 0.262454 2.95483e-18 0.530269 5.21806e-18 0.609137)
(1.22807 0.48637 2.13615e-18 0.992549 -5.65408e-19 1.11575)
(2.3956 0.977928 7.45941e-17 2.02186 -1.51498e-17 2.22048)
(4.80261 2.01589 -1.11995e-18 4.23085 -1.16375e-17 4.54127)
(10.5238 4.53065 1.98736e-19 9.66566 7.32478e-18 10.1524)
(21.2627 9.3666 2.2806e-18 20.3403 -7.00648e-20 20.9219)
(29.5423 13.2893 3.22988e-19 29.422 4.3741e-21 29.6383)
(32.6359 14.9571 3.64825e-16 33.7949 5.16289e-18 33.3628)
(33.0552 15.396 -4.16034e-18 35.5083 -2.15089e-19 34.4051)
(32.6432 15.4159 -2.63745e-17 36.2817 3.57788e-17 34.5634)
(31.9205 15.2538 -2.24254e-15 36.6187 -1.86348e-16 34.3533)
(30.9796 14.9538 -4.02442e-15 36.5982 -2.60911e-16 33.8592)
(29.8474 14.5316 3.58541e-15 36.2431 3.91495e-16 33.1057)
(28.5606 14.0085 -2.69369e-17 35.5994 1.37963e-16 32.1329)
(26.9071 13.2852 1.45718e-18 34.4241 -5.2925e-16 30.7137)
(25.1135 12.4675 -1.94306e-16 32.9205 2.83769e-16 29.062)
(20.1379 10.0629 -3.50954e-15 27.4088 1.27282e-16 23.7832)
(0.00226717 -0.00015526 -1.39707e-21 0.00189654 -4.27631e-21 0.00205182)
(0.00222414 -0.000181979 2.50888e-21 0.00191894 5.67835e-21 0.00203806)
(0.00215871 -0.000204456 -1.11485e-22 0.00194129 1.57233e-23 0.00201045)
(0.00205938 -0.000211719 5.10504e-21 0.00192659 7.58549e-22 0.00194821)
(0.00192978 -0.000206751 3.44135e-21 0.00187668 2.99397e-20 0.00185486)
(0.00178986 -0.000193305 2.25517e-20 0.00180983 3.94324e-20 0.00174791)
(0.00164019 -0.00017301 -1.11909e-20 0.00171471 1.80206e-21 0.00162242)
(0.00148398 -0.000149079 -9.35562e-21 0.0015945 -2.45596e-21 0.00148235)
(0.00133656 -0.000125534 -5.24519e-20 0.00146801 -5.79443e-20 0.001344)
(0.00119894 -0.000104531 -1.75659e-20 0.00133683 -5.78588e-21 0.0012085)
(0.0010727 -8.6947e-05 -1.52986e-19 0.00120612 -1.49441e-19 0.00107994)
(0.000987113 -7.80409e-05 -1.90511e-21 0.00111443 2.61361e-20 0.000989188)
(0.000976399 -8.37539e-05 -9.65648e-20 0.00110659 2.85838e-21 0.000969346)
(0.00107613 -0.000114088 9.00258e-20 0.00122336 5.35052e-20 0.00104889)
(0.00141295 -0.000214269 -3.28199e-19 0.0015931 -9.56867e-20 0.00132311)
(0.00229642 -0.000518215 1.51712e-18 0.00245016 3.67654e-19 0.00199472)
(0.00462283 -0.00138352 -2.99091e-18 0.00434251 -2.5997e-18 0.00368205)
(0.0101316 -0.00334499 -5.41343e-18 0.00824501 -2.1933e-18 0.00777041)
(0.0249791 -0.00840621 -1.15515e-17 0.0184473 4.87376e-18 0.0192888)
(0.0614675 -0.0208 2.30487e-18 0.0433968 -2.00804e-20 0.0486202)
(0.18051 -0.0620899 2.1725e-17 0.126364 3.20477e-17 0.146865)
(0.491555 -0.173991 -4.15673e-17 0.350272 -1.26433e-16 0.411616)
(1.47642 -0.544216 -2.18957e-18 1.09491 2.27143e-16 1.27398)
(4.61338 -1.78019 5.21445e-18 3.60975 -8.73361e-17 4.10737)
(8.78726 -3.53771 -0 7.27032 -0 8.06423)
(12.8747 -5.37761 -2.54907e-17 11.2466 6.04984e-16 12.142)
(16.4978 -7.12414 -6.80585e-17 15.2233 4.67234e-17 15.9682)
(18.8106 -8.36859 -1.10288e-16 18.3267 -4.74059e-16 18.6817)
(18.8661 -8.61755 -9.73651e-16 19.3883 -2.62138e-15 19.226)
(16.8876 -7.88689 3.87698e-16 18.257 -8.27792e-15 17.634)
(14.0699 -6.68613 -1.09266e-16 15.9213 5.63073e-15 15.0083)
(11.371 -5.47396 -3.39141e-16 13.3839 7.38043e-15 12.3503)
(9.24842 -4.49465 -2.20011e-15 11.2457 4.26379e-15 10.2024)
(7.66438 -3.75008 6.48007e-15 9.55469 1.5412e-14 8.56496)
(6.4737 -3.18331 -4.12014e-16 8.22455 -2.75785e-15 7.31299)
(5.55882 -2.74089 6.2418e-15 7.14205 -3.67766e-15 6.31965)
(4.91282 -2.43009 -2.23867e-16 6.38763 4.92318e-17 5.63011)
(4.35988 -2.13682 3.18288e-15 5.51722 7.14143e-16 4.88568)
(4.49092 -2.25178 5.73631e-15 5.97296 6.56195e-15 5.36469)
(0.00227301 -0.000117582 1.62839e-21 0.00185011 5.33164e-21 0.00203588)
(0.00226169 -7.76556e-05 -1.06111e-21 0.00180479 -2.26492e-20 0.00200889)
(0.00221012 -2.67409e-05 -1.43957e-20 0.00173923 -4.80231e-20 0.00195524)
(0.00211625 3.07699e-05 2.68532e-21 0.00166085 6.90678e-20 0.00187437)
(0.00197236 8.48696e-05 3.23306e-20 0.00156969 -3.04661e-20 0.00176338)
(0.00177366 0.000127782 -9.3087e-21 0.00146049 -5.07097e-20 0.00161506)
(0.00153874 0.000150813 5.11859e-20 0.00133592 -1.10723e-19 0.00143923)
(0.0013142 0.000152942 -8.77155e-20 0.00121221 -1.19067e-20 0.00126832)
(0.00111356 0.000139689 -4.7893e-20 0.00109252 1.08898e-19 0.00110892)
(0.000921969 0.000116359 -1.43714e-20 0.000968414 -5.50678e-21 0.000948629)
(0.000751528 8.77102e-05 -2.32362e-20 0.000839671 -5.3158e-20 0.000794839)
(0.000614991 6.18854e-05 4.70271e-21 0.000717179 -2.75605e-20 0.000661719)
(0.000506779 4.21523e-05 1.83371e-20 0.000605946 4.70857e-20 0.000549859)
(0.000418983 2.82167e-05 -1.54881e-20 0.000507033 -1.05497e-20 0.000455553)
(0.000346702 1.88879e-05 -8.6127e-21 0.000420675 -3.08497e-20 0.000376036)
(0.000286768 1.2841e-05 -2.8919e-20 0.000346615 -8.83859e-21 0.00030936)
(0.000236353 8.97691e-06 -4.74263e-21 0.000283064 -6.2979e-23 0.000253091)
(0.000193773 6.45712e-06 -2.73339e-22 0.000228951 -2.46069e-21 0.000205723)
(0.000156366 4.61678e-06 -2.29778e-21 0.000181406 1.65596e-21 0.000164423)
(0.000121906 3.10737e-06 3.06988e-21 0.000138122 -1.04876e-21 0.000126832)
(8.72422e-05 1.73891e-06 -1.15919e-20 9.58447e-05 8.58357e-21 8.9692e-05)
(5.24324e-05 6.64326e-07 -1.02716e-21 5.55619e-05 2.12919e-22 5.32563e-05)
(1.84667e-05 8.3392e-08 -5.05423e-24 1.88475e-05 -1.284e-22 1.85564e-05)
(3.02548e-06 2.261e-09 1.65373e-23 3.03531e-06 9.20597e-25 3.02741e-06)
(7.68974e-06 1.58989e-08 -9.06311e-23 7.74894e-06 7.7518e-24 7.69851e-06)
(0.00085078 0.000192806 -8.68295e-19 0.00142862 1.91197e-19 0.000910402)
(0.0045166 0.00133177 -8.04514e-20 0.00781938 -1.21968e-19 0.00473968)
(0.0372332 0.0119641 -6.58501e-21 0.0620893 -3.44534e-19 0.0383183)
(0.12808 0.0458965 -4.97497e-20 0.204206 -6.76013e-22 0.130574)
(0.25624 0.102677 2.70962e-18 0.38613 2.21815e-18 0.26113)
(0.390972 0.17063 1.82342e-19 0.554196 -9.56e-19 0.401619)
(0.512518 0.235186 4.65611e-18 0.689686 -1.73844e-17 0.53324)
(0.61439 0.289319 2.45513e-15 0.79939 1.76567e-16 0.648399)
(0.701266 0.334876 2.30218e-15 0.897956 1.25925e-16 0.750492)
(0.778811 0.375317 -2.13799e-15 0.995047 -2.52895e-16 0.84498)
(0.856948 0.415518 2.07373e-15 1.09896 2.7213e-16 0.940227)
(0.934432 0.456171 -3.67677e-15 1.21474 -5.42786e-16 1.04041)
(1.13428 0.5524 -3.42254e-15 1.45575 -7.47689e-16 1.25475)
(1.57523 0.776163 -3.41884e-15 1.98032 -1.03269e-16 1.79313)
(0.00151786 -0.000120517 -6.04021e-22 0.00125064 -2.178e-21 0.00139951)
(0.00147805 -0.000143668 -1.29841e-20 0.0012664 -3.06247e-20 0.00139068)
(0.00140945 -0.000159872 9.56604e-21 0.00127078 2.28751e-20 0.00136165)
(0.00131992 -0.000165125 1.32211e-20 0.00126225 2.50349e-20 0.00131716)
(0.00122894 -0.000160342 2.39548e-20 0.00125148 3.46012e-20 0.00126984)
(0.00113523 -0.000144939 -7.36801e-20 0.0012336 -1.28974e-19 0.00121762)
(0.00104702 -0.00012039 5.17467e-20 0.00120878 1.03885e-19 0.00116508)
(0.000973164 -9.03478e-05 6.91154e-20 0.00118118 6.16659e-20 0.00111763)
(0.000915169 -5.71583e-05 -3.97625e-21 0.00115189 8.37097e-21 0.00107685)
(0.000875452 -2.41212e-05 4.22112e-20 0.00112365 7.52682e-20 0.00104547)
(0.0008508 6.59979e-06 -9.18661e-20 0.00109587 -4.33692e-21 0.00102106)
(0.000842098 3.35473e-05 1.25561e-19 0.00107459 1.39335e-19 0.00100693)
(0.000846877 5.60724e-05 5.94637e-20 0.00106216 2.44157e-20 0.0010027)
(0.000864165 7.53434e-05 3.01096e-20 0.00106203 -2.87584e-20 0.00101031)
(0.000878087 8.92377e-05 8.6246e-20 0.00105579 8.52292e-20 0.00101128)
(0.000864575 9.33048e-05 -2.04457e-19 0.00101487 -2.08543e-19 0.000977957)
(0.000751276 7.33685e-05 3.75147e-20 0.000850454 5.4863e-20 0.000825946)
(0.00068053 6.25914e-05 2.6037e-19 0.000754074 7.63755e-20 0.000735127)
(0.00022261 6.76371e-06 8.56236e-21 0.000229744 6.30617e-21 0.000227761)
(1.46581e-07 3.12857e-12 -1.27855e-27 1.46584e-07 -8.88124e-29 1.46583e-07)
(0.00662192 0.00332488 1.73568e-18 0.00976681 -3.83141e-18 0.00867762)
(0.000364904 3.83903e-05 5.3331e-21 0.000401141 4.59864e-20 0.000386823)
(0.00334079 0.00158074 2.81702e-17 0.00611863 -5.79876e-18 0.00459758)
(0.0115811 -0.00451364 -5.52223e-18 0.00939202 -2.30474e-18 0.0101324)
(0.129178 -0.0516828 2.32343e-19 0.107551 5.87305e-19 0.115726)
(0.452983 -0.187439 -5.57819e-17 0.394606 1.596e-17 0.417715)
(1.1306 -0.482618 1.98088e-17 1.03187 8.17352e-18 1.07231)
(2.51291 -1.10073 -2.53797e-17 2.39383 -2.09725e-18 2.44257)
(4.87228 -2.1811 -6.32011e-16 4.8289 6.45501e-16 4.84039)
(7.89858 -3.60587 -1.08004e-15 8.13975 3.34276e-17 8.0143)
(10.5104 -4.88795 3.89168e-15 11.2751 -1.14637e-15 10.9004)
(11.6338 -5.50307 3.17935e-15 12.997 1.73308e-15 12.3369)
(11.1582 -5.35315 -1.53492e-16 12.9483 4.29221e-15 12.0769)
(9.85547 -4.7776 6.62979e-15 11.8093 -5.0356e-15 10.8451)
(8.44024 -4.12069 5.15451e-15 10.3655 -2.92338e-15 9.40518)
(7.17919 -3.51735 -9.5736e-15 8.93718 -3.54571e-15 8.05377)
(6.20288 -3.04772 -2.72354e-17 7.79748 -1.69066e-15 7.00154)
(5.26611 -2.55245 6.2689e-15 6.3453 -1.59018e-15 5.78173)
(5.66956 -2.80914 -1.31258e-14 7.33517 4.22778e-15 6.52939)
(0.00155223 -9.11219e-05 -2.83863e-21 0.00123883 -6.86479e-21 0.00140943)
(0.00156571 -5.92911e-05 -2.35645e-21 0.00122374 -2.58994e-21 0.00140589)
(0.00157114 -2.04505e-05 2.12238e-20 0.00121261 3.71858e-20 0.00140047)
(0.00154394 2.07874e-05 -1.27826e-20 0.0011923 -6.23419e-22 0.00137354)
(0.00148466 6.12694e-05 3.04358e-21 0.00116503 1.59687e-20 0.00132798)
(0.00138237 9.45357e-05 -4.96771e-21 0.00112077 5.03924e-20 0.00125271)
(0.00124291 0.000115285 -1.1463e-20 0.00105717 4.76804e-20 0.00114986)
(0.00108712 0.000121546 1.33436e-19 0.000979617 9.63581e-20 0.00103379)
(0.000943583 0.000117563 1.99061e-20 0.0009064 -2.61745e-20 0.000925825)
(0.000803173 0.000104292 7.13524e-20 0.000824322 9.32566e-21 0.00081435)
(0.000664206 8.44627e-05 -5.56047e-20 0.000723619 -3.73592e-20 0.000694672)
(0.000538925 6.38531e-05 -4.01994e-20 0.000616461 6.17098e-20 0.000579129)
(0.000432679 4.57848e-05 4.33673e-20 0.000514482 -2.19544e-20 0.000475916)
(0.000344927 3.11751e-05 3.57278e-20 0.00042279 -1.30293e-22 0.000387178)
(0.000274849 2.01086e-05 -2.57872e-20 0.000344706 2.48852e-20 0.00031393)
(0.000219768 1.20424e-05 -1.86472e-20 0.000280137 4.50171e-20 0.000254813)
(0.000177784 6.39792e-06 4.5288e-20 0.000228893 -2.77683e-20 0.000208721)
(0.000146526 2.47796e-06 4.22643e-20 0.000189442 -7.71788e-21 0.000173759)
(0.000124182 -2.94353e-07 1.66305e-20 0.000160384 -1.47359e-21 0.000148299)
(0.000108457 -2.40889e-06 -5.64577e-21 0.000139169 2.08996e-20 0.000130023)
(9.79619e-05 -4.16002e-06 7.98924e-20 0.000124206 9.89088e-21 0.000117435)
(9.164e-05 -5.84487e-06 3.20493e-21 0.000113939 -1.48653e-20 0.000109327)
(8.90309e-05 -7.67124e-06 -2.59755e-22 0.000107308 -9.70517e-22 0.000104993)
(8.91498e-05 -9.44246e-06 -1.81572e-21 0.000101822 -1.06197e-20 0.00010291)
(9.2313e-05 -1.05739e-05 -1.51916e-21 9.77446e-05 7.98596e-21 0.000103466)
(9.52024e-05 -1.00429e-05 1.29214e-19 9.32772e-05 -6.635e-21 0.000103152)
(0.000104316 -9.4733e-06 3.51587e-22 9.58373e-05 -1.02531e-23 0.000110067)
(6.25751e-05 -2.75026e-06 -4.70792e-21 5.79767e-05 2.64707e-22 6.39085e-05)
(0.000473789 -6.54898e-05 -1.0224e-21 0.000295352 -1.5851e-22 0.000501655)
(0.00325828 -0.000271971 -2.52159e-18 0.00168514 -9.41165e-20 0.00340699)
(0.00933315 0.000424881 1.7602e-17 0.00467879 7.78567e-19 0.00965238)
(0.0187831 0.00468421 -2.34737e-19 0.0112664 -1.32176e-20 0.0193705)
(0.0386063 0.0154382 -2.7304e-16 0.0316845 -1.28866e-17 0.0399591)
(0.0759846 0.0342767 -3.15245e-19 0.0747656 9.35139e-18 0.0792612)
(0.130182 0.0608375 -1.22123e-18 0.13968 8.40909e-18 0.137249)
(0.196697 0.092946 3.54667e-17 0.218816 -1.03618e-16 0.208518)
(0.267592 0.127581 -1.73228e-16 0.30567 7.13411e-16 0.286696)
(0.333524 0.154081 2.18594e-15 0.353586 8.15274e-16 0.342308)
(0.548359 0.261191 4.48484e-15 0.615165 1.75917e-15 0.593754)
(0.00128858 -9.77105e-05 -2.52561e-21 0.00106039 -4.72177e-21 0.00116915)
(0.00127321 -0.000115788 -5.50383e-21 0.00108099 -8.81823e-21 0.0011712)
(0.00124332 -0.00013141 1.05155e-20 0.00110016 1.60023e-20 0.00116421)
(0.00120677 -0.00014155 1.48094e-20 0.00111822 1.43976e-20 0.00115348)
(0.00115898 -0.000144747 1.67351e-21 0.00112697 -7.27393e-22 0.00113226)
(0.00110143 -0.000141117 -5.68354e-21 0.00112603 1.39717e-20 0.00110103)
(0.0010394 -0.000131396 1.0789e-19 0.00111485 1.081e-19 0.00106241)
(0.000972812 -0.00011671 -1.01062e-19 0.00108971 -1.34209e-19 0.00101452)
(0.000904828 -9.8807e-05 2.828e-20 0.00105277 7.31086e-21 0.000959874)
(0.00083695 -7.97092e-05 1.33617e-19 0.00100431 9.89815e-20 0.000899727)
(0.000769962 -6.08798e-05 1.05098e-19 0.000946127 1.06747e-19 0.000835267)
(0.000703922 -4.35076e-05 1.14004e-19 0.000879758 3.27496e-20 0.000767511)
(0.000638523 -2.83842e-05 -1.27132e-19 0.000806706 -9.64051e-20 0.000697227)
(0.000573917 -1.58305e-05 -7.97126e-20 0.000729247 -7.99762e-20 0.000625767)
(0.000509982 -5.80798e-06 8.77748e-21 0.000648898 -2.68121e-20 0.000553693)
(0.000443504 2.90016e-06 -1.95207e-19 0.000563141 1.37557e-20 0.000478784)
(0.000377664 1.02071e-05 -5.2775e-20 0.00047477 -6.68881e-20 0.000404286)
(0.000324354 1.61099e-05 -2.89751e-19 0.000400217 -2.25367e-19 0.000343721)
(0.000255408 1.60349e-05 2.18808e-20 0.000299117 -2.94421e-20 0.000266249)
(0.000149108 6.61322e-06 3.04767e-21 0.000160626 -6.95499e-21 0.000152157)
(1.99205e-05 1.12323e-07 -4.06443e-22 2.00585e-05 -4.78068e-24 1.99634e-05)
(5.24552e-05 6.85667e-07 3.09245e-22 5.31042e-05 6.83712e-23 5.26896e-05)
(0 0 -0 0 -0 0)
(0.00240591 0.000962254 -5.76349e-19 0.00286873 6.19218e-19 0.002576)
(0.0133807 0.0062206 1.03313e-18 0.0147948 6.9991e-20 0.0136918)
(0.0297606 0.0131254 1.0593e-17 0.0293249 5.65114e-18 0.0286405)
(0.0175392 0.00715931 -7.68644e-19 0.0151963 3.17772e-19 0.0157872)
(0.0098739 0.0029325 1.2465e-18 0.00610733 7.91186e-20 0.00749146)
(0.0283561 -0.0100316 3.63984e-17 0.0203082 2.20707e-18 0.0235715)
(0.246821 -0.106158 -9.84668e-18 0.228126 1.20169e-16 0.235618)
(1.04529 -0.470398 -5.28527e-16 1.04761 -5.21382e-16 1.04318)
(2.7778 -1.28168 1.97454e-15 2.93148 -1.85336e-15 2.85061)
(5.10328 -2.39957 2.16647e-15 5.62528 -2.11263e-16 5.36294)
(6.95417 -3.32023 -3.87356e-16 7.97109 -7.21843e-15 7.46766)
(7.66866 -3.70398 -5.80842e-15 9.08633 -1.75912e-15 8.38639)
(7.47943 -3.63675 6.98529e-16 9.05726 3.65841e-15 8.27219)
(6.98196 -3.40965 -9.94949e-15 8.57585 1.47667e-15 7.78591)
(6.24122 -3.0115 -6.98399e-15 7.39851 8.70914e-16 6.80445)
(6.52456 -3.20348 8.1175e-15 8.12171 -4.9514e-15 7.36563)
(0.00128962 -7.51201e-05 -1.3664e-21 0.00103304 -1.4034e-21 0.00115774)
(0.00127911 -5.12322e-05 4.87591e-21 0.00100512 2.23225e-20 0.001139)
(0.0012525 -2.16874e-05 1.44756e-20 0.000970848 3.21582e-20 0.00111014)
(0.00121295 9.51136e-06 1.55991e-20 0.000937818 -7.61977e-21 0.00107463)
(0.00115589 3.9969e-05 -3.09935e-20 0.000903988 -2.66234e-20 0.00103)
(0.00107636 6.60725e-05 -3.416e-21 0.000865148 -3.80845e-20 0.000970914)
(0.000980904 8.44519e-05 -4.75571e-20 0.000822672 -4.88475e-20 0.000901642)
(0.00087907 9.3353e-05 -7.51276e-20 0.000777398 -2.77395e-21 0.00082825)
(0.000775254 9.3505e-05 -2.16157e-20 0.000727878 -1.19304e-20 0.000752023)
(0.000668507 8.57834e-05 2.33768e-20 0.000668415 -1.63668e-20 0.00066911)
(0.000565432 7.27398e-05 2.31489e-20 0.000599884 5.31137e-20 0.000583221)
(0.000474505 5.81187e-05 4.3546e-20 0.000530048 -1.68907e-20 0.000502569)
(0.00039839 4.44025e-05 -3.71982e-20 0.000464255 -4.26803e-20 0.00043118)
(0.000335866 3.2684e-05 -7.03226e-21 0.000404555 1.58665e-20 0.000369576)
(0.000285212 2.33575e-05 3.38695e-20 0.000352005 -7.38112e-21 0.000317464)
(0.00024418 1.62603e-05 7.43356e-20 0.000306535 -5.30145e-21 0.000273758)
(0.000211314 1.10748e-05 -4.6626e-20 0.00026826 -1.33648e-20 0.000237774)
(0.000185065 7.3511e-06 -1.41606e-20 0.000236571 -2.0666e-20 0.000208465)
(0.000164286 4.64714e-06 -6.60426e-21 0.000210852 3.66032e-21 0.000184938)
(0.000147524 2.56559e-06 6.89263e-20 0.000189737 -2.72421e-20 0.00016581)
(0.000134021 8.49986e-07 1.2445e-20 0.000172457 -1.82334e-20 0.000150272)
(0.00012279 -7.17667e-07 -6.70216e-20 0.000157823 1.9681e-20 0.000137231)
(0.000112885 -2.26628e-06 -2.80401e-21 0.000144548 9.89915e-21 0.000125545)
(0.000102624 -3.70404e-06 -1.07804e-21 0.000130407 -6.61646e-21 0.000113281)
(9.21957e-05 -4.60539e-06 1.00523e-21 0.000115827 -8.23286e-23 0.000100622)
(8.36217e-05 -4.88868e-06 -5.1244e-20 0.000103756 -1.05453e-20 8.99573e-05)
(7.72147e-05 -4.83467e-06 -9.07113e-22 9.4651e-05 1.6133e-22 8.1818e-05)
(7.26475e-05 -4.67098e-06 1.10596e-20 8.81474e-05 2.95329e-22 7.58897e-05)
(6.69019e-05 -4.2876e-06 -3.91517e-22 8.02373e-05 -9.40929e-24 6.89604e-05)
(5.9098e-05 -3.80349e-06 2.53193e-22 7.0127e-05 3.64457e-22 6.02277e-05)
(4.49595e-05 -2.81119e-06 -2.79155e-20 5.22727e-05 -1.01069e-21 4.53358e-05)
(2.87216e-05 -1.69846e-06 -6.4597e-22 3.25061e-05 -4.01393e-23 2.86641e-05)
(0.000200136 -5.49232e-05 3.57487e-21 0.000303328 -6.71874e-20 0.000184132)
(0.000394783 -4.54417e-05 1.70263e-17 0.000504634 1.53136e-18 0.000286732)
(0.00166668 0.000598347 1.09579e-18 0.00129716 1.22543e-19 0.00133082)
(0.0085368 0.00332381 -1.8701e-16 0.00672375 -3.54252e-17 0.00771439)
(0.0268838 0.0112201 1.25144e-15 0.0232537 1.83748e-16 0.0257867)
(0.0706795 0.0279127 4.82541e-17 0.0567383 -1.76906e-16 0.064444)
(0.229943 0.104492 2.73455e-16 0.230779 -1.52018e-15 0.237535)
(0.000964233 -7.4405e-05 -3.03438e-21 0.000794204 -4.51129e-21 0.000880935)
(0.000948082 -8.78728e-05 -5.53792e-21 0.000806735 -7.48052e-21 0.00087989)
(0.000922365 -9.91106e-05 1.88283e-20 0.000818547 2.4123e-20 0.000873207)
(0.000888723 -0.000105923 -8.03258e-20 0.000827222 -1.09905e-19 0.000861482)
(0.000847393 -0.000107505 1.99362e-20 0.000830182 3.12866e-20 0.000843085)
(0.000799205 -0.000103635 4.34847e-20 0.000826571 4.52093e-20 0.000817915)
(0.000747543 -9.45848e-05 -3.71105e-20 0.000815553 -6.08477e-20 0.000787566)
(0.000694358 -8.11833e-05 -2.50297e-20 0.000796253 4.32879e-21 0.000752381)
(0.000641669 -6.45597e-05 -1.49548e-19 0.000769043 -1.41462e-19 0.000713486)
(0.000592404 -4.63057e-05 -2.09246e-20 0.000735738 -5.65217e-20 0.000673402)
(0.000547838 -2.77191e-05 4.11545e-21 0.000697793 -1.32793e-20 0.000633349)
(0.000509171 -9.99729e-06 -7.50298e-20 0.000657288 -9.53204e-20 0.000594967)
(0.000477394 5.89644e-06 3.60023e-20 0.000616771 4.31937e-20 0.000559972)
(0.000452696 1.93914e-05 -1.47928e-19 0.000578304 -7.68951e-20 0.000529369)
(0.000434949 3.04284e-05 3.23124e-20 0.00054351 1.79986e-20 0.000503921)
(0.000422144 3.85859e-05 1.41532e-19 0.000512445 1.18424e-19 0.000482239)
(0.000408304 4.36271e-05 -1.9463e-19 0.000480582 -5.53518e-20 0.000458796)
(0.000388769 4.56668e-05 -3.57235e-20 0.000443263 1.60574e-19 0.000429175)
(0.000367898 4.643e-05 -1.22927e-20 0.000406916 -2.08393e-20 0.00039925)
(0.000332798 4.26235e-05 -1.42301e-19 0.000356575 -2.30337e-20 0.00035424)
(0.000275697 3.20761e-05 1.17932e-19 0.000286686 7.23624e-20 0.000287214)
(0.000165396 1.19127e-05 1.42255e-21 0.000167908 -2.05664e-21 0.000168354)
(1.77812e-05 1.27686e-07 3.26463e-22 1.77972e-05 9.09829e-23 1.78019e-05)
(4.87225e-06 8.44952e-09 1.39476e-23 4.87238e-06 4.65441e-24 4.87291e-06)
(0 0 -0 0 -0 0)
(0 0 0 0 -0 0)
(0.00614932 0.00254771 4.04423e-19 0.00538041 -1.12e-19 0.00581751)
(0.00769723 0.00316916 -2.36842e-19 0.00663568 -3.57642e-19 0.00719786)
(0.0173963 0.0071026 -7.60085e-18 0.0147248 -3.80937e-19 0.0160793)
(0.00849619 0.0033821 3.95336e-19 0.00696229 2.24841e-20 0.00771924)
(0.0219042 0.00827915 -2.52598e-18 0.0167081 9.71132e-19 0.0192409)
(0.0461423 0.012286 -2.19371e-16 0.0254633 -1.55481e-16 0.035469)
(0.232901 -0.0945561 -8.07594e-17 0.196085 -2.49626e-16 0.213274)
(1.24606 -0.571091 -5.39604e-15 1.29661 5.31705e-16 1.26839)
(3.10722 -1.46773 7.59951e-16 3.46653 2.49555e-15 3.28414)
(4.95607 -2.37569 -8.56609e-19 5.74948 1.31906e-19 5.35167)
(6.08639 -2.9442 -3.33493e-16 7.24668 4.53873e-15 6.67242)
(6.40289 -3.07175 1.42653e-16 7.46114 1.91967e-16 6.91617)
(6.94421 -3.38891 -1.32418e-14 8.44899 2.74567e-15 7.75268)
(0.000973521 -5.80102e-05 5.35363e-21 0.000780313 3.43978e-21 0.000878714)
(0.000975297 -4.04311e-05 -1.50746e-20 0.00076665 -2.43046e-20 0.000871982)
(0.000967327 -1.88497e-05 -8.32803e-21 0.000749964 1.41385e-20 0.000859567)
(0.000946674 4.45286e-06 4.02242e-20 0.000731344 2.95608e-20 0.000839478)
(0.000911585 2.77136e-05 -1.50182e-20 0.000710728 -7.74446e-20 0.000811484)
(0.000858233 4.83547e-05 -2.68661e-20 0.000685235 1.82062e-20 0.000771739)
(0.000792056 6.39184e-05 6.77937e-20 0.00065693 5.27785e-20 0.000724308)
(0.00072016 7.29061e-05 -2.25316e-20 0.000627159 -6.15995e-20 0.000673592)
(0.000644804 7.53647e-05 -5.42708e-20 0.000594097 -2.45397e-20 0.000619552)
(0.000566117 7.16216e-05 -4.03754e-20 0.000553845 1.57756e-20 0.000560174)
(0.000489258 6.33254e-05 4.46204e-20 0.000507048 1.70171e-21 0.000498326)
(0.000418579 5.28439e-05 -2.55139e-20 0.000456724 -2.60831e-20 0.00043781)
(0.000355921 4.20742e-05 -3.26552e-20 0.000405712 2.60659e-20 0.000381004)
(0.000301304 3.21464e-05 3.16201e-20 0.000355968 1.36092e-20 0.000328901)
(0.000254439 2.36743e-05 -4.63528e-20 0.000309187 7.73054e-21 0.000282196)
(0.000214702 1.68132e-05 -1.24506e-20 0.000266584 -3.4225e-20 0.000241186)
(0.000181492 1.14815e-05 1.38295e-20 0.000228978 1.77053e-20 0.000205954)
(0.000154145 7.4261e-06 -5.06639e-20 0.000196729 2.37194e-21 0.000176336)
(0.000132003 4.35031e-06 2.01259e-20 0.000169813 -3.59805e-22 0.000151976)
(0.000114193 1.95135e-06 -7.6705e-20 0.000147615 5.23805e-21 0.000132128)
(0.000100012 -6.66936e-09 -1.0576e-20 0.000129494 2.88409e-21 0.000116106)
(8.8659e-05 -1.71568e-06 6.1495e-20 0.000114505 5.69499e-21 0.000103045)
(7.93423e-05 -3.28536e-06 5.89579e-20 0.000101577 -1.34986e-20 9.20087e-05)
(7.07614e-05 -4.65655e-06 -4.91498e-20 8.89201e-05 3.64269e-21 8.15044e-05)
(6.22279e-05 -5.52969e-06 -6.86015e-22 7.58606e-05 4.10183e-22 7.08413e-05)
(5.44203e-05 -5.80687e-06 -4.70926e-20 6.37376e-05 1.43812e-20 6.09841e-05)
(4.83896e-05 -5.71859e-06 -9.30885e-22 5.38823e-05 1.00656e-23 5.32181e-05)
(4.45521e-05 -5.3935e-06 -7.52918e-24 4.66682e-05 -3.94031e-22 4.79298e-05)
(4.35159e-05 -5.06168e-06 -5.51957e-23 4.27143e-05 1.11352e-23 4.57511e-05)
(4.12455e-05 -4.09772e-06 1.61596e-20 3.83486e-05 1.3137e-22 4.23638e-05)
(5.17076e-05 -5.49364e-06 7.69838e-23 4.50101e-05 -1.63033e-22 5.23072e-05)
(1.19151e-05 -3.21057e-07 2.61966e-24 1.14004e-05 -4.56735e-26 1.1897e-05)
(8.4912e-05 -1.23913e-05 -4.40986e-19 6.21043e-05 -3.29768e-20 8.21178e-05)
(0.000439135 -0.000103795 -3.84567e-18 0.000233608 -3.28588e-19 0.000396733)
(0.00113006 -0.000261934 9.56351e-20 0.000571774 9.58552e-21 0.00096751)
(0.000995676 -0.000199745 -1.84879e-17 0.000465065 -2.85169e-19 0.000789635)
(0.00149313 -0.000154307 3.34025e-18 0.000595139 -2.48965e-17 0.00109638)
(0.00285328 0.000199399 1.37017e-18 0.00112059 2.70542e-19 0.00195655)
(0.0490634 0.0197326 -5.08531e-16 0.0400072 7.08722e-17 0.0465986)
(0.000790944 -6.1047e-05 5.97208e-21 0.000651771 7.00687e-21 0.000720725)
(0.000783305 -7.19267e-05 -4.50716e-21 0.000665517 -5.07084e-21 0.000723838)
(0.000768891 -8.14884e-05 1.90959e-23 0.000679572 -3.74555e-22 0.000723318)
(0.000750179 -8.81033e-05 -2.57548e-21 0.00069322 2.41535e-21 0.000720623)
(0.000726012 -9.09776e-05 5.75915e-20 0.000703356 6.08151e-20 0.000713393)
(0.000696904 -8.99725e-05 -3.64361e-20 0.000709763 -4.68209e-20 0.000701641)
(0.000664882 -8.51206e-05 -2.75454e-21 0.000711265 1.20748e-20 0.000686016)
(0.000630452 -7.68323e-05 1.24537e-19 0.000706213 1.1992e-19 0.000665836)
(0.000594676 -6.58139e-05 -2.94098e-20 0.000694408 2.12499e-21 0.000641478)
(0.0005588 -5.31271e-05 -1.41001e-19 0.000675825 -9.42846e-20 0.000613657)
(0.000523196 -3.97184e-05 4.37639e-20 0.000650606 3.66996e-20 0.000582575)
(0.000488393 -2.64945e-05 -1.16555e-19 0.000619661 -3.68726e-20 0.00054896)
(0.000454762 -1.42742e-05 -4.28165e-20 0.000584157 -1.59756e-20 0.000513625)
(0.000422357 -3.55399e-06 -7.32618e-20 0.000545284 4.10408e-20 0.000477178)
(0.000391182 5.37074e-06 6.36314e-21 0.000504274 3.52827e-21 0.000440293)
(0.000359924 1.22848e-05 5.33538e-20 0.000460659 1.19801e-20 0.000402132)
(0.000326223 1.76133e-05 7.3619e-20 0.000412312 1.08563e-19 0.000360956)
(0.000291886 2.13332e-05 2.75092e-19 0.000362156 7.60625e-20 0.000319067)
(0.000260298 2.37526e-05 -1.09999e-19 0.000315147 -5.27355e-21 0.000280505)
(0.000231692 2.47902e-05 1.00329e-19 0.000271867 4.42296e-20 0.000245631)
(0.000212624 2.60297e-05 1.54877e-20 0.00024096 -4.51971e-20 0.000221656)
(0.000191904 2.46653e-05 -1.54468e-20 0.000207807 2.81077e-20 0.000196186)
(0.000168186 2.01313e-05 -7.49369e-20 0.000172979 -4.28499e-20 0.00016857)
(6.26551e-05 2.8145e-06 3.61135e-22 6.22723e-05 -4.27186e-22 6.23015e-05)
(8.19332e-06 4.67039e-08 1.16673e-23 8.17233e-06 -2.4126e-24 8.18121e-06)
(3.82105e-06 9.89812e-09 1.36116e-23 3.81442e-06 -4.22928e-24 3.81744e-06)
(1.4085e-06 1.32894e-09 -6.35222e-25 1.40749e-06 -2.26952e-25 1.40796e-06)
(0 0 -0 0 -0 0)
(0 0 0 0 0 0)
(0.00117327 0.000369836 -1.07872e-19 0.000933872 -4.36725e-19 0.00105025)
(0.00517571 0.00194825 -5.213e-18 0.00395645 2.15521e-18 0.00454944)
(0.0274875 0.0103427 -3.57704e-17 0.0208478 3.75029e-17 0.0240864)