/*--------------------------------*- C++ -*----------------------------------*\
| =========                 |                                                 |
| \\      /  F ield         | OpenFOAM: The Open Source CFD Toolbox           |
|  \\    /   O peration     | Version:  2312                                  |
|   \\  /    A nd           | Website:  www.openfoam.com                      |
|    \\/     M anipulation  |                                                 |
\*---------------------------------------------------------------------------*/
FoamFile
{
    version     2.0;
    format      ascii;
    arch        "LSB;label=32;scalar=64";
    class       volVectorField;
    location    "250";
    object      U;
}
// * * * * * * * * * * * * * * * * * * * * * * * * * * * * * * * * * * * * * //

dimensions      [0 1 -1 0 0 0 0];

internalField   nonuniform List<vector> 
10720
(
(0.226189 27.6526 1.44481e-17)
(1.9638 29.9487 -1.32936e-17)
(4.13696 32.167 0)
(6.63496 33.8998 -4.01288e-16)
(9.39137 35.2297 4.48046e-16)
(12.3379 36.1148 3.26719e-16)
(15.3196 36.4567 4.53555e-16)
(18.2407 36.2899 0)
(21.0162 35.6793 0)
(23.5631 34.6598 0)
(25.8446 33.3267 1.21315e-16)
(27.8138 31.7287 0)
(29.424 29.8628 2.446e-15)
(30.6586 27.7693 0)
(31.4748 25.4633 0)
(31.8447 22.9759 0)
(31.6981 20.3085 -4.4308e-15)
(30.9576 17.4975 -6.86239e-15)
(29.4893 14.5552 6.41777e-15)
(27.1656 11.5461 0)
(23.8463 8.5346 6.381e-15)
(19.5818 5.68095 -1.47567e-14)
(14.9112 3.23273 9.17096e-15)
(11.4667 1.445 -3.3591e-16)
(10.0852 0.26412 0)
(10.7229 -0.357679 4.64768e-15)
(12.1441 -0.599956 5.9944e-17)
(13.6534 -0.721208 -1.40752e-15)
(14.898 -0.87328 -4.55605e-15)
(15.7217 -1.08881 -1.50703e-14)
(16.1547 -1.34921 6.28018e-15)
(16.2917 -1.62289 1.08416e-14)
(16.0904 -1.86911 8.834e-15)
(15.5839 -2.06432 2.89243e-14)
(14.7557 -2.18411 -1.12508e-14)
(13.6085 -2.21382 -7.7711e-17)
(11.766 -2.07185 2.25084e-17)
(9.76533 -1.82099 2.84105e-15)
(3.6715 -1.0964 1.25662e-14)
(-1.14417 25.2021 -7.23335e-19)
(-2.25042 22.4415 -1.33102e-17)
(-3.01628 19.3347 5.81826e-17)
(-3.3191 15.7382 -1.69011e-16)
(-2.99929 12.0232 -5.67948e-16)
(-2.02703 8.32517 1.01409e-15)
(-0.489961 4.95556 5.32374e-15)
(1.36131 2.19202 3.17739e-15)
(3.31937 -0.136178 0)
(5.5495 -2.15676 0)
(7.84531 -3.65906 2.11998e-15)
(9.96183 -4.62565 7.70972e-16)
(11.8325 -5.18453 -1.28285e-15)
(13.4693 -5.46028 1.0547e-15)
(14.8973 -5.54976 1.73973e-15)
(16.1473 -5.51601 1.12111e-15)
(17.2502 -5.40664 1.42761e-15)
(18.2383 -5.25059 9.47153e-16)
(19.1429 -5.06735 0)
(19.9857 -4.85971 0)
(20.7848 -4.62918 -1.30056e-15)
(21.5511 -4.36631 -5.91092e-17)
(22.2859 -4.05711 8.66997e-16)
(22.9583 -3.67658 -5.90585e-16)
(23.5007 -3.22477 2.72623e-17)
(23.8957 -2.74517 0)
(24.1738 -2.27746 7.76545e-17)
(24.371 -1.77822 0)
(24.5026 -1.18097 0)
(24.5689 -0.512945 -9.4345e-18)
(24.5494 0.159907 0)
(24.4296 0.789623 1.16487e-16)
(24.2106 1.35358 1.60171e-16)
(23.901 1.84537 4.50918e-16)
(23.5008 2.26726 1.25924e-16)
(23.0067 2.62714 -1.10589e-18)
(22.316 2.92647 0)
(21.3651 3.13384 4.10253e-15)
(18.7606 3.31105 7.82791e-15)
(7.1542 23.9974 -8.23952e-18)
(9.04498 25.7244 -2.58965e-19)
(11.3488 27.2884 0)
(14.0049 28.5848 0)
(16.8669 29.5539 -1.31631e-16)
(19.9396 30.1355 -3.13541e-16)
(23.1105 30.283 0)
(26.2469 30.0177 0)
(29.295 29.3494 6.71289e-16)
(32.1719 28.33 0)
(34.8214 27.0123 2.48136e-15)
(37.2368 25.495 0)
(39.4267 23.8678 8.82847e-16)
(41.4029 22.1635 -8.66935e-16)
(43.1523 20.4128 1.73749e-15)
(44.6343 18.6543 -3.45155e-15)
(45.8301 16.9114 3.65853e-15)
(46.7026 15.2133 3.32462e-15)
(47.1911 13.567 3.22939e-15)
(47.1832 11.9772 1.96141e-16)
(46.4856 10.3947 -3.35666e-15)
(44.8701 8.72142 3.2984e-15)
(42.1957 6.82006 -1.9845e-16)
(38.6652 4.75722 0)
(35.1398 2.86636 0)
(31.994 1.34629 0)
(29.1984 0.240661 1.94715e-16)
(26.8168 -0.550312 -4.26181e-17)
(24.9579 -1.15137 2.61522e-15)
(23.6009 -1.62391 2.67765e-17)
(22.5705 -1.99427 -1.99431e-17)
(21.6432 -2.28129 -7.65874e-17)
(20.7195 -2.5063 5.28947e-15)
(19.7141 -2.67557 -8.45957e-15)
(18.537 -2.77444 -4.36268e-17)
(17.1507 -2.78525 -8.9531e-15)
(15.1849 -2.63957 0)
(13.1015 -2.37218 -6.82872e-16)
(7.0673 -1.47882 5.62027e-15)
(5.55889 22.1582 1.08606e-17)
(4.17345 20.1135 -4.96367e-17)
(2.95922 17.7196 -6.02633e-16)
(2.03819 14.9993 7.46959e-16)
(1.58992 12.0413 0)
(1.70323 8.98536 -1.63439e-15)
(2.39994 6.04359 -1.23103e-15)
(3.58488 3.44229 -9.54463e-15)
(5.07733 1.14504 2.76058e-15)
(6.84061 -0.755472 -1.99675e-15)
(8.73428 -2.12214 2.45973e-15)
(10.5835 -3.0105 -6.90134e-16)
(12.3067 -3.54846 0)
(13.88 -3.8358 -4.51568e-16)
(15.2981 -3.95353 5.98107e-17)
(16.5722 -3.95394 -9.96805e-16)
(17.7191 -3.88143 0)
(18.7623 -3.7611 0)
(19.726 -3.61079 -1.02497e-16)
(20.6332 -3.42777 9.878e-17)
(21.4992 -3.20969 -1.16016e-15)
(22.3364 -2.93921 -1.24764e-16)
(23.1465 -2.59494 5.47286e-17)
(23.9072 -2.13654 5.93804e-16)
(24.5662 -1.5714 -4.04451e-16)
(25.0975 -0.96333 -2.8726e-16)
(25.5121 -0.336499 0)
(25.8042 0.273695 0)
(25.9659 0.82121 0)
(25.9994 1.28855 9.64935e-18)
(25.9339 1.68389 0)
(25.7961 2.03003 0)
(25.5962 2.34659 -2.35279e-16)
(25.3353 2.6421 -1.28972e-16)
(25.004 2.91998 -1.03313e-16)
(24.6035 3.18313 4.77505e-16)
(24.0348 3.42871 -1.81792e-15)
(23.4717 3.64776 -3.21586e-15)
(21.4952 3.71587 -5.39219e-15)
(8.30346 22.1045 -1.74552e-18)
(9.64529 23.6301 9.32474e-18)
(11.278 25.1161 -8.46131e-18)
(13.1545 26.49 -3.82404e-17)
(15.2223 27.6332 -1.72531e-16)
(17.4806 28.5223 6.03136e-16)
(19.8551 29.1185 -4.22883e-16)
(22.2711 29.3842 -4.98821e-16)
(24.6717 29.3195 8.77363e-18)
(26.999 28.9363 -6.572e-16)
(29.1998 28.2545 6.14355e-16)
(31.24 27.2992 -1.59988e-15)
(33.0926 26.1003 -7.61218e-16)
(34.7403 24.6906 0)
(36.1816 23.1043 -1.84737e-15)
(37.4756 21.3524 3.69325e-15)
(38.6526 19.4653 0)
(39.7324 17.4991 -6.94426e-15)
(40.7755 15.5032 -3.43366e-15)
(41.8271 13.5513 3.95509e-16)
(42.9482 11.6846 -3.80568e-16)
(44.0584 9.89153 -1.7307e-16)
(44.8695 8.03259 -2.44861e-15)
(44.9378 6.02399 1.27774e-15)
(44.1705 4.02763 0)
(42.821 2.28325 1.22349e-15)
(41.112 0.901915 -1.46052e-16)
(39.0935 -0.183643 0)
(36.7236 -1.07395 1.92496e-15)
(34.0405 -1.80181 3.55789e-15)
(31.2526 -2.36542 -6.17102e-15)
(28.6461 -2.77181 -5.15876e-15)
(26.3746 -3.04307 -1.0225e-16)
(24.3704 -3.20237 -6.75669e-15)
(22.4436 -3.26216 -5.16682e-15)
(20.4648 -3.21969 7.00316e-15)
(18.0618 -3.02944 0)
(15.5758 -2.661 -4.61694e-16)
(9.78526 -1.892 -7.78301e-15)
(7.209 20.4972 -1.62701e-17)
(6.24914 18.7425 -6.05691e-17)
(5.45149 16.6771 2.41851e-16)
(4.81088 14.3666 0)
(4.48241 11.8855 4.62919e-16)
(4.51173 9.30333 0)
(4.9264 6.75718 3.51164e-15)
(5.69572 4.40531 2.0704e-15)
(6.78152 2.2997 1.79806e-15)
(8.13613 0.509903 0)
(9.63365 -0.903284 -2.5183e-15)
(11.1536 -1.96102 -5.31031e-16)
(12.6243 -2.72457 2.38517e-15)
(14.0104 -3.25198 0)
(15.2951 -3.59382 -1.0933e-15)
(16.4763 -3.7934 -3.28841e-16)
(17.5604 -3.88871 1.34907e-15)
(18.561 -3.90595 6.96638e-16)
(19.4949 -3.8633 1.89971e-16)
(20.3795 -3.76603 -1.03667e-16)
(21.2274 -3.61626 1.0627e-15)
(22.0472 -3.40577 0)
(22.8393 -3.12114 0)
(23.5843 -2.74195 2.65094e-17)
(24.2391 -2.28326 0)
(24.7793 -1.79423 5.98833e-16)
(25.2153 -1.29703 -7.62471e-18)
(25.5605 -0.796628 -3.16871e-17)
(25.8205 -0.289514 0)
(25.9955 0.226152 -1.24091e-18)
(26.0876 0.750083 -8.40961e-18)
(26.0982 1.27191 0)
(26.0272 1.77349 1.0438e-16)
(25.8742 2.2392 0)
(25.63 2.6616 0)
(25.2945 3.03906 4.30871e-17)
(24.7686 3.3733 -6.08222e-17)
(24.1677 3.62572 3.36799e-15)
(22.3672 3.72653 1.07819e-14)
(10.9049 20.2288 -1.30436e-17)
(12.1616 21.5238 -1.06901e-17)
(13.6686 22.785 -2.27135e-19)
(15.4026 23.9381 -6.21681e-18)
(17.3173 24.8928 0)
(19.419 25.6303 0)
(21.6518 26.1067 -7.01842e-16)
(23.9552 26.2868 8.47325e-16)
(26.2826 26.163 0)
(28.5791 25.7368 -1.03628e-15)
(30.7937 25.0213 -1.32248e-15)
(32.8866 24.0397 -1.24857e-15)
(34.8225 22.8262 1.4956e-15)
(36.5747 21.4181 1.41162e-15)
(38.1327 19.848 0)
(39.4569 18.168 2.23714e-15)
(40.5018 16.4359 7.66125e-16)
(41.2637 14.6884 6.18032e-15)
(41.7522 12.9625 3.73206e-16)
(42.0158 11.2928 -3.6707e-16)
(42.1524 9.70614 3.10289e-15)
(42.315 8.1967 -5.0456e-16)
(42.6078 6.6811 2.78196e-15)
(42.8848 5.07129 1.17695e-15)
(42.8422 3.43326 -7.26118e-17)
(42.3908 1.95385 -1.09587e-15)
(41.6915 0.740298 7.96665e-18)
(40.9006 -0.255745 -8.06474e-18)
(39.9956 -1.12458 -1.7791e-15)
(38.8187 -1.89728 -4.64511e-17)
(37.1834 -2.55804 2.89931e-15)
(34.9852 -3.07934 -4.82225e-15)
(32.322 -3.44307 -3.77746e-15)
(29.4882 -3.65058 -3.01762e-18)
(26.7164 -3.71433 4.56931e-15)
(24.04 -3.63707 0)
(21.1128 -3.39994 3.25154e-15)
(18.1288 -2.91869 3.75568e-16)
(12.3675 -2.2106 3.12279e-15)
(9.84948 18.874 -2.9792e-17)
(8.90251 17.4051 8.13036e-17)
(8.07602 15.6723 3.52225e-16)
(7.38453 13.7151 0)
(6.95891 11.603 -4.08707e-16)
(6.83414 9.38439 0)
(7.03629 7.16294 -2.71534e-15)
(7.53971 5.06139 -1.18556e-16)
(8.32224 3.13732 1.2869e-15)
(9.35103 1.45521 1.12316e-15)
(10.5351 0.0683071 3.7943e-17)
(11.79 -1.01759 1.86444e-15)
(13.0556 -1.83427 -1.1973e-15)
(14.2912 -2.42263 3.79361e-16)
(15.4714 -2.82202 1.28693e-15)
(16.5842 -3.07153 1.4109e-15)
(17.6267 -3.20526 -1.25919e-15)
(18.603 -3.25029 7.60635e-18)
(19.523 -3.2263 0)
(20.398 -3.14273 1.29829e-15)
(21.2375 -3.00281 6.30405e-17)
(22.0474 -2.80106 -9.65864e-16)
(22.8271 -2.52625 0)
(23.56 -2.16084 2.66958e-17)
(24.2103 -1.71052 0)
(24.7541 -1.21279 -2.87885e-16)
(25.1962 -0.6907 0)
(25.5479 -0.155325 3.02427e-17)
(25.8139 0.382852 -8.07765e-19)
(25.9969 0.908788 4.02738e-19)
(26.1022 1.40666 8.10435e-18)
(26.1364 1.8608 1.69919e-19)
(26.1032 2.26802 0)
(26.0043 2.6314 3.21078e-17)
(25.8301 2.9576 1.12149e-18)
(25.5766 3.25101 -5.77232e-16)
(25.1451 3.52003 4.33252e-15)
(24.6127 3.69557 1.07995e-17)
(22.9824 3.75831 0)
(12.4355 18.8298 -1.81683e-17)
(13.492 19.9791 -3.61178e-18)
(14.7662 21.1211 -2.47765e-19)
(16.2236 22.1936 1.26877e-16)
(17.8241 23.1139 -4.76729e-17)
(19.5885 23.8771 -1.84594e-16)
(21.47 24.444 3.00889e-16)
(23.4217 24.7789 0)
(25.4129 24.8721 1.19585e-15)
(27.3972 24.7167 5.59164e-16)
(29.3333 24.3145 0)
(31.1866 23.6771 1.20224e-15)
(32.9229 22.8236 -6.38403e-16)
(34.5152 21.7756 1.78121e-15)
(35.9428 20.5567 0)
(37.1853 19.1906 -2.9778e-15)
(38.2547 17.6731 2.79886e-15)
(39.1454 16.0268 -1.65201e-16)
(39.8501 14.285 0)
(40.3618 12.4941 3.00554e-15)
(40.6867 10.6935 -3.0182e-15)
(40.851 8.9141 -1.56353e-16)
(40.8972 7.148 -2.39325e-15)
(40.8179 5.38947 -2.26678e-15)
(40.5207 3.7099 0)
(39.9669 2.22982 0)
(39.2686 1.00648 -2.58024e-16)
(38.5696 -0.00852561 -2.85621e-17)
(37.9372 -0.895817 1.75526e-15)
(37.3494 -1.69033 -4.60319e-17)
(36.74 -2.39498 4.57368e-17)
(35.9738 -3.0059 4.70613e-15)
(34.8179 -3.50549 0)
(33.0277 -3.85581 1.21264e-14)
(30.5492 -4.02099 -3.96182e-17)
(27.6211 -3.98272 0)
(24.2854 -3.73929 -1.65902e-17)
(20.8303 -3.17173 0)
(14.9748 -2.479 -2.70308e-15)
(11.5424 17.6338 2.95172e-17)
(10.7387 16.3504 -1.85914e-16)
(10.0168 14.8356 -4.40292e-17)
(9.38495 13.1279 8.20331e-16)
(8.9593 11.2916 -1.29507e-15)
(8.76459 9.35487 -1.69234e-15)
(8.83192 7.39356 2.05643e-15)
(9.15232 5.50732 -2.19039e-15)
(9.71634 3.75853 -9.71844e-16)
(10.4999 2.19942 -8.56095e-16)
(11.4384 0.87077 1.64242e-15)
(12.4686 -0.214357 -1.56815e-15)
(13.5428 -1.07345 -6.83742e-16)
(14.623 -1.73352 6.64837e-16)
(15.6818 -2.22035 -1.43764e-15)
(16.703 -2.56362 2.64114e-16)
(17.6784 -2.78962 0)
(18.6062 -2.92062 -9.94825e-16)
(19.4903 -2.97328 3.51465e-16)
(20.3374 -2.95742 -1.36154e-15)
(21.1539 -2.87645 0)
(21.9433 -2.72719 8.40278e-16)
(22.7036 -2.5015 6.58172e-16)
(23.4202 -2.1886 -4.92636e-16)
(24.0625 -1.79455 0)
(24.6073 -1.35123 -3.16336e-16)
(25.0552 -0.883867 0)
(25.415 -0.405225 0)
(25.6906 0.0753174 0)
(25.8841 0.547642 2.42989e-17)
(25.9991 1.00354 0)
(26.041 1.443 0)
(26.0139 1.8661 -1.64228e-17)
(25.9209 2.26934 -3.22979e-17)
(25.7567 2.6496 0)
(25.5233 3.00267 -6.76199e-16)
(25.1345 3.32866 8.45934e-17)
(24.6757 3.54853 0)
(23.2991 3.65996 -5.39906e-15)
(13.9266 17.5956 2.22836e-17)
(14.8867 18.6127 -1.58211e-17)
(16.04 19.6291 0)
(17.3544 20.5864 8.92482e-18)
(18.7914 21.4112 -1.12508e-16)
(20.3806 22.1041 1.73446e-16)
(22.0817 22.6267 4.66158e-17)
(23.8571 22.9472 -7.50685e-16)
(25.6857 23.052 -9.49172e-17)
(27.5296 22.9302 1.14161e-15)
(29.3535 22.5774 -4.07887e-16)
(31.1275 21.997 9.25602e-16)
(32.8183 21.1992 4.65027e-16)
(34.398 20.1988 3.34669e-16)
(35.842 19.0144 0)
(37.1309 17.6673 -6.44807e-16)
(38.2374 16.1977 -1.4132e-15)
(39.1343 14.6563 -5.18456e-15)
(39.8111 13.0829 1.52888e-15)
(40.2754 11.5068 -1.93163e-15)
(40.5448 9.94845 -3.01369e-16)
(40.6445 8.40534 0)
(40.5839 6.84634 2.15187e-15)
(40.3359 5.25259 1.39424e-16)
(39.8541 3.68688 -6.48945e-17)
(39.1402 2.26863 -9.26223e-16)
(38.2846 1.07273 2.15051e-16)
(37.4027 0.0768105 4.48777e-16)
(36.5544 -0.784753 -1.67527e-15)
(35.7495 -1.54852 -8.9089e-17)
(34.9954 -2.2225 2.84021e-15)
(34.3159 -2.81102 4.56152e-15)
(33.6965 -3.31841 0)
(33.0068 -3.73853 -1.92815e-17)
(31.9144 -4.03639 -4.59152e-15)
(30.0406 -4.13518 0)
(27.1151 -3.97676 -5.93244e-15)
(23.5554 -3.39211 0)
(17.6357 -2.72506 2.4314e-15)
(13.1067 16.541 -2.94235e-17)
(12.3652 15.4161 7.54152e-17)
(11.6855 14.0847 -1.87312e-16)
(11.0772 12.58 0)
(10.6427 10.9632 5.50338e-16)
(10.3984 9.25235 2.76803e-15)
(10.3716 7.50337 0)
(10.5632 5.80297 -1.57098e-15)
(10.9681 4.21339 -1.49476e-15)
(11.5656 2.77365 1.49332e-15)
(12.31 1.51675 -5.9441e-17)
(13.1539 0.459785 6.4696e-16)
(14.0611 -0.405671 3.36964e-17)
(14.9994 -1.09621 1.69905e-15)
(15.9428 -1.62761 1.5199e-15)
(16.8741 -2.02116 -1.42481e-15)
(17.7821 -2.2968 2.00059e-16)
(18.6607 -2.47278 -3.72129e-16)
(19.5089 -2.5638 1.7236e-16)
(20.3292 -2.57975 9.99444e-16)
(21.1242 -2.52517 1.29392e-16)
(21.895 -2.3992 -9.28788e-17)
(22.6382 -2.19619 -5.58646e-16)
(23.3402 -1.90866 0)
(23.9747 -1.54102 2.26133e-17)
(24.5195 -1.11862 5.92012e-16)
(24.9718 -0.664821 -2.96566e-18)
(25.3376 -0.192051 2.96932e-18)
(25.6203 0.290701 0)
(25.8212 0.77292 -2.29543e-17)
(25.9438 1.24527 0)
(25.9929 1.69801 0)
(25.9724 2.12123 1.46384e-17)
(25.8852 2.50889 9.95489e-17)
(25.7257 2.8594 0)
(25.4942 3.16947 6.42882e-16)
(25.1115 3.44483 -4.51417e-15)
(24.6498 3.59147 2.19126e-17)
(23.4301 3.62762 5.1616e-15)
(15.1259 16.5523 3.99751e-19)
(15.988 17.4656 -1.50441e-17)
(17.0232 18.386 5.81539e-18)
(18.1977 19.2589 -5.64603e-18)
(19.4732 20.0188 7.70687e-17)
(20.8846 20.6723 0)
(22.3952 21.186 -3.33462e-16)
(23.9731 21.5308 6.58844e-18)
(25.6056 21.6955 -3.41422e-16)
(27.2602 21.6683 -6.91911e-16)
(28.9087 21.4423 0)
(30.5265 21.0169 -1.68011e-15)
(32.0835 20.3973 -1.4468e-15)
(33.5529 19.5928 -3.52841e-15)
(34.9108 18.6176 0)
(36.1331 17.4911 -2.19431e-15)
(37.2002 16.2339 -2.30373e-15)
(38.104 14.8557 2.45029e-15)
(38.8358 13.3792 -2.40532e-15)
(39.3917 11.8371 2.22988e-15)
(39.776 10.2614 2.75263e-16)
(39.9967 8.67676 -2.36682e-15)
(40.0512 7.08459 0)
(39.9029 5.48579 -2.10267e-15)
(39.5032 3.93275 1.26381e-16)
(38.8538 2.52112 9.65084e-16)
(38.0331 1.31581 0)
(37.141 0.302845 -3.29433e-17)
(36.2281 -0.573232 7.12139e-17)
(35.2969 -1.34559 2.74428e-15)
(34.3476 -2.02075 -2.54479e-15)
(33.4058 -2.60206 -4.40909e-15)
(32.5138 -3.09475 3.71867e-15)
(31.7263 -3.50295 -6.44343e-17)
(31.0316 -3.82366 4.71766e-15)
(30.2421 -4.02213 6.10664e-15)
(28.6202 -4.01391 3.09634e-15)
(25.8556 -3.51972 -8.0808e-18)
(20.2457 -2.93603 -2.99148e-18)
(14.3839 15.6076 1.18737e-17)
(13.7098 14.6062 1.45362e-16)
(13.0795 13.4188 1.9591e-16)
(12.5026 12.0758 -3.73225e-16)
(12.0712 10.6357 -1.48429e-15)
(11.7979 9.10813 4.94068e-16)
(11.7072 7.53473 1.25747e-15)
(11.8066 5.99413 3.17856e-15)
(12.0932 4.54654 1.27392e-15)
(12.5493 3.21999 -1.1913e-15)
(13.1412 2.04154 -3.87824e-17)
(13.8327 1.02855 -5.72742e-16)
(14.5964 0.176307 0)
(15.4062 -0.525624 -2.71273e-17)
(16.2393 -1.08661 -9.3056e-16)
(17.0796 -1.52166 4.05778e-16)
(17.9151 -1.84515 -3.98554e-16)
(18.737 -2.07076 0)
(19.5412 -2.21005 6.03011e-16)
(20.3266 -2.27155 -1.05051e-15)
(21.0932 -2.25931 0)
(21.8397 -2.17325 7.68537e-16)
(22.5615 -2.00946 0)
(23.246 -1.76322 -2.86925e-17)
(23.8698 -1.43879 2.86319e-17)
(24.4118 -1.05705 -2.89979e-16)
(24.8666 -0.639921 -5.37596e-18)
(25.2378 -0.200867 -3.06588e-18)
(25.5277 0.249957 6.77029e-19)
(25.7375 0.701349 -3.70015e-17)
(25.8698 1.14253 -4.37362e-17)
(25.929 1.5655 5.35292e-17)
(25.9186 1.96673 1.23122e-18)
(25.8408 2.34269 3.26091e-17)
(25.6897 2.69187 0)
(25.4648 3.0098 1.38183e-17)
(25.0921 3.29769 2.11407e-15)
(24.6322 3.46005 -1.27999e-17)
(23.5049 3.50265 4.80018e-15)
(16.181 15.6335 4.4701e-18)
(16.9714 16.4574 2.27463e-17)
(17.9189 17.2913 0)
(18.99 18.0839 -2.57909e-17)
(20.1463 18.776 2.55651e-17)
(21.4255 19.3778 0)
(22.7945 19.8584 -1.23114e-16)
(24.2255 20.1919 9.71387e-16)
(25.7114 20.368 -1.35158e-15)
(27.2258 20.3744 4.31029e-16)
(28.7451 20.2021 5.88976e-16)
(30.2501 19.8472 2.1339e-15)
(31.7147 19.3098 1.53084e-15)
(33.1146 18.5935 1.82943e-15)
(34.4264 17.7068 4.84734e-16)
(35.6264 16.6623 1.60836e-15)
(36.6946 15.4758 2.21516e-15)
(37.6091 14.1765 2.10201e-15)
(38.3524 12.7993 -1.54204e-15)
(38.9187 11.373 -4.71099e-15)
(39.3118 9.92125 0)
(39.542 8.45643 8.67671e-17)
(39.6126 6.97675 1.86761e-15)
(39.501 5.48243 2.00192e-15)
(39.1663 4.01538 -1.15635e-16)
(38.6012 2.65775 -8.59423e-16)
(37.8637 1.47361 6.17689e-18)
(37.0375 0.462435 -4.40024e-16)
(36.1687 -0.417543 4.65761e-17)
(35.2577 -1.19427 -5.10153e-15)
(34.2944 -1.87238 -9.10632e-18)
(33.2811 -2.45224 -6.92521e-17)
(32.2297 -2.93608 -3.57033e-15)
(31.1755 -3.32525 -6.37558e-17)
(30.1709 -3.61717 -4.53294e-15)
(29.3516 -3.8004 -1.23481e-14)
(28.4998 -3.85348 3.19866e-15)
(27.1093 -3.49545 4.07117e-16)
(22.4946 -3.07206 2.15594e-15)
(15.496 14.7828 -5.27538e-17)
(14.8718 13.8848 -1.96754e-16)
(14.2795 12.8178 -1.42018e-16)
(13.7286 11.6091 -3.62585e-16)
(13.3028 10.3152 8.23712e-16)
(13.011 8.93929 -5.9388e-17)
(12.8764 7.51348 -3.11151e-15)
(12.9087 6.1113 -1.07966e-15)
(13.1062 4.78911 1.70281e-17)
(13.454 3.5666 0)
(13.9255 2.46674 -1.00822e-15)
(14.4927 1.5058 9.40932e-16)
(15.1345 0.680418 -9.0672e-16)
(15.8305 -0.0163183 -4.64605e-16)
(16.5618 -0.589397 3.87957e-16)
(17.3147 -1.04911 3.86034e-16)
(18.0773 -1.40488 1.38523e-15)
(18.8401 -1.66609 -3.28266e-16)
(19.5971 -1.84121 -5.59237e-16)
(20.3447 -1.93703 0)
(21.0804 -1.95696 -8.51338e-16)
(21.801 -1.90137 -6.33328e-16)
(22.5007 -1.76757 -1.33142e-17)
(23.1671 -1.55281 -6.84365e-17)
(23.7794 -1.26099 -2.20349e-17)
(24.3172 -0.9089 3.36902e-16)
(24.7731 -0.516538 -6.27781e-18)
(25.1483 -0.0975175 5.02378e-17)
(25.4442 0.337835 8.46311e-18)
(25.6613 0.778563 3.35678e-17)
(25.8016 1.21416 -1.27445e-17)
(25.8687 1.63645 -1.28891e-16)
(25.8656 2.03738 -1.23258e-16)
(25.7945 2.41079 -1.18817e-16)
(25.6497 2.75326 -7.02359e-18)
(25.4305 3.05741 4.26006e-18)
(25.0677 3.32321 -2.16173e-15)
(24.6185 3.44589 -3.22091e-15)
(23.5712 3.43352 -4.42057e-15)
(17.092 14.8217 -1.37152e-17)
(17.8199 15.5698 -8.50942e-18)
(18.6916 16.3299 -2.11784e-17)
(19.673 17.0541 6.44118e-18)
(20.7263 17.6879 4.95072e-17)
(21.89 18.2447 -1.39872e-16)
(23.1336 18.6966 4.62589e-16)
(24.4321 19.0205 0)
(25.7827 19.2085 4.11084e-16)
(27.1624 19.2486 1.23232e-17)
(28.5523 19.132 -5.0417e-16)
(29.9378 18.8536 -1.96274e-15)
(31.2963 18.4111 -7.98602e-16)
(32.606 17.8052 0)
(33.8455 17.0408 0)
(34.9922 16.127 0)
(36.0242 15.0788 0)
(36.9233 13.9126 -2.0465e-15)
(37.6758 12.6459 2.01629e-15)
(38.2717 11.302 1.97303e-15)
(38.7079 9.90577 -1.59155e-15)
(38.9851 8.47861 1.40227e-15)
(39.1008 7.03245 -1.46339e-15)
(39.0367 5.57894 -1.08049e-16)
(38.7628 4.15554 -5.05039e-17)
(38.273 2.8285 8.65177e-16)
(37.6136 1.65403 1.87032e-16)
(36.8568 0.638626 0)
(36.0481 -0.24949 0)
(35.1921 -1.03481 4.17564e-17)
(34.2804 -1.72196 0)
(33.309 -2.31035 3.7713e-15)
(32.2737 -2.80028 -3.34653e-15)
(31.173 -3.18919 -5.37533e-15)
(30.0019 -3.47005 8.44719e-15)
(28.8576 -3.62453 5.97638e-15)
(27.8069 -3.64398 -3.18956e-15)
(27.2305 -3.33721 -8.62358e-16)
(24.012 -3.09191 -2.17439e-15)
(16.4571 14.0501 0)
(15.8769 13.2385 5.49526e-17)
(15.319 12.2724 2.69524e-16)
(14.793 11.1764 -1.16606e-15)
(14.3761 10.0053 1.02923e-15)
(14.0735 8.75693 -8.2708e-16)
(13.9084 7.45685 9.65304e-18)
(13.8916 6.17514 8.16567e-16)
(14.0213 4.96351 8.63409e-16)
(14.2852 3.83608 0)
(14.6615 2.81222 4.14851e-16)
(15.1273 1.90683 -1.26833e-15)
(15.6666 1.11665 2.00974e-15)
(16.2634 0.436461 3.65913e-16)
(16.9025 -0.136536 -7.44872e-16)
(17.5727 -0.609213 -6.93548e-16)
(18.2635 -0.987493 -6.37384e-16)
(18.9657 -1.27729 0)
(19.6725 -1.48416 0)
(20.3788 -1.61283 0)
(21.08 -1.6657 7.94074e-16)
(21.7714 -1.64297 0)
(22.4465 -1.54259 -5.11922e-16)
(23.0931 -1.36304 -6.5553e-17)
(23.6917 -1.10787 -3.91544e-16)
(24.2232 -0.79087 -2.9591e-16)
(24.6783 -0.430048 0)
(25.0564 -0.0390977 -4.14142e-17)
(25.3576 0.371288 -8.91416e-18)
(25.5818 0.789969 1.65347e-18)
(25.7304 1.20606 1.14579e-16)
(25.8064 1.6103 -2.16886e-17)
(25.8122 1.99631 1.18403e-16)
(25.7498 2.35829 -1.73951e-16)
(25.6132 2.69262 0)
(25.4014 2.99131 -1.35363e-17)
(25.0496 3.25198 -5.13786e-17)
(24.6126 3.36998 3.05062e-15)
(23.6427 3.34395 -2.59583e-17)
(17.8938 14.0942 1.59656e-17)
(18.5698 14.7763 0)
(19.3782 15.4712 6.01025e-17)
(20.2851 16.1339 -2.50966e-17)
(21.2531 16.714 -3.07533e-17)
(22.3211 17.2267 1.30859e-16)
(23.4602 17.6467 -2.03418e-16)
(24.6479 17.9537 -2.4749e-16)
(25.8841 18.1409 0)
(27.149 18.1976 -4.34487e-16)
(28.4276 18.1149 -4.66663e-16)
(29.7086 17.8871 4.6357e-16)
(30.9728 17.5099 1.73623e-15)
(32.2022 16.9813 6.9798e-16)
(33.3774 16.3027 -2.11882e-15)
(34.4767 15.4796 -1.53297e-15)
(35.4795 14.5217 1.21311e-15)
(36.3671 13.4427 8.97173e-16)
(37.1212 12.2645 -4.40721e-16)
(37.7287 11.0103 4.41501e-16)
(38.1834 9.70194 1.11936e-15)
(38.4834 8.35723 2.08455e-16)
(38.6246 6.98804 -1.99643e-16)
(38.5926 5.60758 -1.33983e-15)
(38.3643 4.24848 0)
(37.9336 2.96642 -7.24689e-16)
(37.3367 1.81348 -3.48863e-16)
(36.6352 0.803248 -3.22082e-16)
(35.8727 -0.0861949 -1.19246e-15)
(35.0593 -0.875248 4.47237e-15)
(34.1913 -1.56807 1.84422e-15)
(33.2676 -2.16367 5.88563e-18)
(32.2848 -2.6616 4.11841e-17)
(31.2354 -3.05807 0)
(30.0881 -3.34323 -3.95065e-15)
(28.862 -3.49262 0)
(27.4763 -3.48516 0)
(26.8266 -3.13838 4.43486e-16)
(24.7109 -2.99545 4.3884e-18)
(17.301 13.391 -5.38544e-17)
(16.758 12.6534 1.82776e-16)
(16.23 11.7737 1.22575e-17)
(15.727 10.7742 2.58773e-16)
(15.3203 9.7077 -9.34544e-16)
(15.0124 8.56808 6.88048e-16)
(14.8261 7.37661 3.53881e-17)
(14.7729 6.20046 -6.76346e-16)
(14.8508 5.08653 -6.63403e-16)
(15.0492 4.04516 -7.07342e-16)
(15.3495 3.09312 -1.40467e-15)
(15.7328 2.24378 0)
(16.1862 1.49328 -7.22308e-16)
(16.6973 0.837084 -2.55866e-17)
(17.2539 0.273712 0)
(17.8475 -0.201845 -6.09228e-16)
(18.4695 -0.592826 -2.90626e-16)
(19.1115 -0.902536 -2.73837e-16)
(19.7668 -1.13407 9.45627e-16)
(20.4294 -1.29 8.45227e-16)
(21.0937 -1.37136 -8.76856e-17)
(21.754 -1.37791 6.55628e-16)
(22.4028 -1.30788 1.29615e-16)
(23.0281 -1.16024 -6.26535e-17)
(23.6116 -0.938239 3.46502e-16)
(24.1349 -0.653179 2.12106e-17)
(24.5876 -0.320887 0)
(24.9671 0.0452924 0)
(25.2725 0.434523 -1.74905e-18)
(25.503 0.835779 4.25717e-18)
(25.659 1.23807 -1.34027e-16)
(25.743 1.6321 -2.1067e-17)
(25.757 2.01005 1.89479e-16)
(25.7023 2.36472 1.6457e-16)
(25.5734 2.6913 9.20682e-18)
(25.3689 2.97987 4.36454e-18)
(25.0291 3.22592 4.00322e-15)
(24.606 3.32213 -2.9077e-15)
(23.7139 3.26624 2.41018e-17)
(18.602 13.4373 6.12516e-18)
(19.233 14.0619 0)
(19.9864 14.6992 -3.56551e-17)
(20.8289 15.3071 0)
(21.7233 15.8392 -7.26698e-17)
(22.7085 16.3116 7.03372e-17)
(23.757 16.7012 1.53848e-16)
(24.8479 16.9902 2.328e-16)
(25.9828 17.1732 0)
(27.1447 17.2407 -2.86872e-16)
(28.3213 17.1846 4.77012e-16)
(29.5045 16.9991 -9.80076e-16)
(30.6781 16.6792 -5.49261e-16)
(31.8266 16.2213 -5.60041e-16)
(32.9331 15.6249 1.34685e-15)
(33.978 14.8925 1.46088e-15)
(34.9417 14.0311 -1.57096e-15)
(35.8053 13.052 -1.57189e-15)
(36.5518 11.969 0)
(37.1666 10.8006 4.05548e-16)
(37.6401 9.56614 -7.85047e-16)
(37.9663 8.28521 1.91869e-16)
(38.1381 6.97445 2.59674e-18)
(38.1424 5.65156 3.16e-15)
(37.9607 4.34638 -1.7508e-16)
(37.5874 3.10484 1.09642e-16)
(37.0503 1.97316 3.21213e-16)
(36.401 0.969165 3.40485e-16)
(35.6802 0.079252 1.02235e-15)
(34.9015 -0.712669 -2.05054e-15)
(34.0651 -1.40998 -1.6839e-15)
(33.1731 -2.01118 -6.60389e-15)
(32.2261 -2.51536 5.67648e-15)
(31.2221 -2.91853 -8.03958e-17)
(30.1337 -3.21081 3.66299e-15)
(28.9719 -3.36452 -1.11915e-16)
(27.5286 -3.36292 6.1251e-17)
(26.5105 -2.96675 4.14648e-18)
(24.8825 -2.8236 -1.91042e-15)
(18.0461 12.7938 2.64916e-17)
(17.536 12.1199 -9.39533e-17)
(17.035 11.315 1.84958e-16)
(16.5531 10.399 0)
(16.1575 9.42298 5.43372e-16)
(15.8484 8.37723 0)
(15.6475 7.2808 0)
(15.5673 6.19759 0)
(15.6053 5.17038 1.2263e-15)
(15.7521 4.20683 -6.05832e-16)
(15.9917 3.32176 6.8508e-16)
(16.3076 2.5272 0)
(16.6892 1.81852 0)
(17.1265 1.19109 -6.2029e-16)
(17.6103 0.644024 0)
(18.134 0.173475 5.64457e-16)
(18.6911 -0.222463 1.29717e-17)
(19.2745 -0.545016 0)
(19.8779 -0.795213 -6.72115e-16)
(20.4955 -0.97391 -9.96055e-16)
(21.1211 -1.08086 -6.93705e-16)
(21.7481 -1.11508 -6.03616e-16)
(22.3688 -1.07453 1.0344e-15)
(22.9712 -0.958349 0)
(23.538 -0.769381 3.4684e-16)
(24.0512 -0.516776 3.20476e-16)
(24.4997 -0.214397 1.19589e-16)
(24.8793 0.124973 0)
(25.1878 0.490445 -8.84305e-18)
(25.4238 0.871028 -5.27408e-17)
(25.587 1.2557 1.46515e-16)
(25.679 1.63464 -2.01605e-17)
(25.7013 2 -1.71293e-16)
(25.655 2.34435 2.04701e-16)
(25.5343 2.66226 -2.39906e-18)
(25.3379 2.94263 9.20333e-18)
(25.0107 3.17873 -3.88118e-15)
(24.6019 3.26368 2.6924e-15)
(23.7839 3.18989 6.79542e-15)
(19.2324 12.8396 2.84825e-18)
(19.824 13.4132 -1.79443e-17)
(20.5296 13.9993 0)
(21.3162 14.558 -1.50185e-17)
(22.1471 15.0463 0)
(23.0606 15.4809 0)
(24.0304 15.8412 1.95693e-17)
(25.0371 16.1107 2.02029e-16)
(26.0836 16.2856 4.68404e-16)
(27.1547 16.3573 1.20045e-15)
(28.2404 16.3191 6.81072e-16)
(29.3351 16.1649 7.88095e-16)
(30.425 15.8895 0)
(31.4977 15.4883 1.54149e-15)
(32.5384 14.9589 -5.47053e-16)
(33.5295 14.3019 0)
(34.4528 13.5213 1.30887e-15)
(35.2903 12.6249 1.49938e-15)
(36.0246 11.6245 0)
(36.6398 10.537 1.43777e-15)
(37.1235 9.38009 -1.40787e-15)
(37.4673 8.17191 0)
(37.6629 6.92943 -1.69365e-16)
(37.6985 5.67147 2.88724e-17)
(37.559 4.42508 8.19905e-17)
(37.2388 3.22867 1.24589e-15)
(36.7587 2.12339 -4.52759e-18)
(36.161 1.13038 -3.33253e-17)
(35.4824 0.243539 -2.78766e-17)
(34.7382 -0.548836 6.19003e-17)
(33.9313 -1.24884 1.68324e-15)
(33.0649 -1.85416 5.92781e-15)
(32.1416 -2.36308 4.80551e-17)
(31.1638 -2.77099 -4.27712e-15)
(30.1114 -3.06877 -3.3008e-15)
(29.009 -3.22556 -4.78837e-15)
(27.6683 -3.23905 -2.70802e-15)
(26.4451 -2.82895 1.98743e-17)
(24.899 -2.62704 1.8154e-15)
(18.7089 12.2485 -6.03099e-17)
(18.2278 11.6306 -2.24639e-16)
(17.7512 10.8911 4.45128e-16)
(17.2892 10.0484 0)
(16.9049 9.15112 8.74026e-16)
(16.5974 8.18755 0)
(16.387 7.17495 -4.7951e-16)
(16.2866 6.17412 1.92395e-15)
(16.2937 5.22416 -1.48833e-15)
(16.3998 4.33116 0)
(16.5904 3.5081 1.10521e-15)
(16.8511 2.76585 1.06975e-15)
(17.1726 2.09917 0)
(17.5471 1.5033 -1.057e-15)
(17.9669 0.97731 2.55968e-16)
(18.4277 0.517615 -2.56351e-16)
(18.9244 0.123233 2.4978e-16)
(19.4516 -0.205779 4.39007e-16)
(20.004 -0.468962 -1.63104e-17)
(20.5761 -0.66565 5.3243e-16)
(21.1616 -0.79435 1.57588e-16)
(21.7539 -0.853236 -1.51267e-16)
(22.345 -0.839917 -4.8798e-16)
(22.9233 -0.753269 4.20108e-16)
(23.4718 -0.595467 -3.0552e-16)
(23.9731 -0.373947 -3.22377e-16)
(24.4157 -0.100614 -1.12694e-16)
(24.7938 0.212541 -1.25658e-18)
(25.1042 0.554768 9.62289e-18)
(25.3448 0.915285 4.98641e-17)
(25.5144 1.28311 1.0501e-17)
(25.614 1.64823 -1.93388e-17)
(25.6444 2.00226 2.36567e-16)
(25.6063 2.33691 -2.07059e-16)
(25.4939 2.64574 9.61566e-18)
(25.3059 2.91627 -7.22312e-16)
(24.9923 3.13972 1.86638e-15)
(24.5993 3.21034 0)
(23.8522 3.1179 -6.44356e-15)
(19.7964 12.2924 1.00432e-17)
(20.3531 12.8206 0)
(21.0163 13.3607 0)
(21.7534 13.875 6.68552e-18)
(22.5285 14.3237 -2.03614e-17)
(23.379 14.7237 0)
(24.2797 15.0559 0)
(25.2121 15.3059 -6.59485e-16)
(26.1803 15.4708 -3.35227e-17)
(27.1704 15.5434 -4.08456e-17)
(28.1742 15.5175 -1.57301e-15)
(29.188 15.3876 -4.12575e-16)
(30.2002 15.1486 7.87626e-16)
(31.2007 14.7955 -6.7226e-17)
(32.177 14.3248 0)
(33.1135 13.7355 0)
(33.9938 13.0294 -3.58033e-15)
(34.8004 12.2119 -6.61984e-16)
(35.5167 11.292 6.71352e-16)
(36.1267 10.2826 -1.39316e-15)
(36.616 9.19936 2.6517e-15)
(36.9742 8.05973 1.26046e-15)
(37.1914 6.88157 -1.22687e-15)
(37.2562 5.68501 -1.39886e-15)
(37.1562 4.49502 2.23242e-16)
(36.8858 3.34362 -1.21901e-15)
(36.46 2.26692 -1.38376e-16)
(35.9132 1.28794 3.07784e-17)
(35.278 0.406708 -3.09619e-17)
(34.5702 -0.384146 1.03518e-16)
(33.7946 -1.08537 -4.3176e-17)
(32.9551 -1.69374 -2.90423e-15)
(32.0547 -2.2065 -1.08411e-16)
(31.0967 -2.61818 1.27351e-16)
(30.0661 -2.92 0)
(28.9889 -3.07863 4.41654e-15)
(27.7457 -3.09942 2.51685e-15)
(26.5143 -2.70381 0)
(24.9547 -2.43598 0)
(19.3018 11.7479 0)
(18.8466 11.1793 2.00485e-16)
(18.3925 10.4977 -6.64203e-16)
(17.9492 9.71974 -3.22139e-16)
(17.5764 8.89195 -7.89441e-16)
(17.2724 8.00091 0)
(17.0562 7.06292 0)
(16.9407 6.13557 -8.56969e-16)
(16.924 5.25491 8.95985e-16)
(16.9975 4.42576 0)
(17.1485 3.65974 -4.66079e-16)
(17.3638 2.9669 -5.03012e-16)
(17.6352 2.34159 4.76317e-16)
(17.9559 1.77848 4.94243e-16)
(18.3201 1.27637 -9.18297e-16)
(18.7245 0.831862 0)
(19.1659 0.444203 -2.07763e-16)
(19.6401 0.114169 1.29682e-17)
(20.143 -0.156867 9.22854e-16)
(20.6698 -0.367083 -1.70979e-16)
(21.2148 -0.513861 1.64247e-16)
(21.7713 -0.594585 -1.2552e-16)
(22.3317 -0.60635 1.78145e-16)
(22.8844 -0.54759 -8.48537e-16)
(23.4132 -0.419642 -3.01706e-16)
(23.9009 -0.228347 2.6134e-16)
(24.3358 0.0161221 -1.60464e-17)
(24.7109 0.302735 0)
(25.0221 0.621042 -9.23481e-18)
(25.2663 0.960484 5.45749e-17)
(25.4418 1.31019 -7.74008e-17)
(25.5485 1.65994 1.29155e-16)
(25.5868 2.00106 -4.83068e-16)
(25.557 2.32476 5.123e-16)
(25.4533 2.62387 -7.87501e-18)
(25.2741 2.88478 6.74781e-16)
(24.9748 3.09663 3.48081e-17)