/*--------------------------------*- C++ -*----------------------------------*\
| =========                 |                                                 |
| \\      /  F ield         | OpenFOAM: The Open Source CFD Toolbox           |
|  \\    /   O peration     | Version:  2312                                  |
|   \\  /    A nd           | Website:  www.openfoam.com                      |
|    \\/     M anipulation  |                                                 |
\*---------------------------------------------------------------------------*/
FoamFile
{
    version     2.0;
    format      ascii;
    arch        "LSB;label=32;scalar=64";
    class       volScalarField;
    location    "150";
    object      magR;
}
// * * * * * * * * * * * * * * * * * * * * * * * * * * * * * * * * * * * * * //

dimensions      [0 2 -2 0 0 0 0];

internalField   nonuniform List<scalar> 
27
(
0.0567905
0.0365958
0.0503407
0.0401469
0.0154914
0.0356459
0.0540264
0.0300754
0.046529
0.00414467
0.00159554
0.00490769
0.00404514
0.00298371
0.00887534
0.0142309
0.0113844
0.021557
0.00540378
0.0601558
0.149448
0.140191
0.0549454
0.243171
0.387502
0.316335
0.574381
)
;

boundaryField
{
    aggregate
    {
        type            calculated;
        value           nonuniform List<scalar> 
24
(
2.30038
2.38012
2.19268
2.16117
2.28899
2.11989
2.29328
2.49682
2.29271
2.17962
2.32965
2.11575
1.38377
1.40513
1.3193
1.55705
1.66262
1.56142
1.81797
1.97104
1.7962
1.88649
2.02064
1.81939
)
;
    }
    XY-Zmin
    {
        type            calculated;
        value           nonuniform List<scalar> 9(2.09913 2.044 1.76993 1.24754 1.63768 2.13272 1.02466 0.98372 1.64027);
    }
    YZ-Xmin
    {
        type            calculated;
        value           nonuniform List<scalar> 9(0.0333089 0.0251821 0.0297715 0.0268239 0.0162765 0.022729 0.0348019 0.0254174 0.0339572);
    }
    XZ-Ymin
    {
        type            calculated;
        value           nonuniform List<scalar> 9(2.08365 1.86588 1.51685 1.23476 1.35975 1.42026 1.00295 0.720459 0.800497);
    }
    XY-Zmax
    {
        type            calculated;
        value           nonuniform List<scalar> 9(1.49231 1.47515 1.70684 1.45137 1.72094 1.93843 0.841403 1.34763 2.25939);
    }
    XZ-Ymax
    {
        type            calculated;
        value           nonuniform List<scalar> 9(1.75946 1.58991 1.73341 2.17959 1.8879 1.96715 1.72177 2.00953 2.31754);
    }
    YZ-Xmax
    {
        type            calculated;
        value           nonuniform List<scalar> 9(0.00565905 0.0611181 0.149033 0.13775 0.0572826 0.239844 0.374776 0.298005 0.567761);
    }
}


// ************************************************************************* //
