/*--------------------------------*- C++ -*----------------------------------*\
| =========                 |                                                 |
| \\      /  F ield         | OpenFOAM: The Open Source CFD Toolbox           |
|  \\    /   O peration     | Version:  2312                                  |
|   \\  /    A nd           | Website:  www.openfoam.com                      |
|    \\/     M anipulation  |                                                 |
\*---------------------------------------------------------------------------*/
FoamFile
{
    version     2.0;
    format      ascii;
    arch        "LSB;label=32;scalar=64";
    class       volVectorField;
    location    "150";
    object      momentError;
}
// * * * * * * * * * * * * * * * * * * * * * * * * * * * * * * * * * * * * * //

dimensions      [0 1 -2 0 0 0 0];

internalField   nonuniform List<vector> 
27
(
(0.00653629 -0.011176 -0.011622)
(0.000946679 -0.009143 -0.00200813)
(0.00183267 -0.0136489 0.0130237)
(0.174612 -0.00340111 -0.200854)
(0.00630171 -0.00955054 -0.00285838)
(1.54499 0.0449088 -1.63256)
(-1.17973 -0.803168 2.32499)
(2.40298 0.0618698 -2.492)
(2.21119 0.257994 -0.452532)
(-0.0541546 0.0604893 0.0715112)
(-61.7326 -7.38632 -3.59041)
(-0.106722 0.0208413 -0.0607584)
(-89.7319 -19.9004 21.8114)
(-95.0315 -3.12605 -29.4101)
(-38.4398 -1.65799 -17.7021)
(-56.7181 -7.89332 23.1904)
(-156.327 -24.426 -27.8566)
(-53.3627 -23.8179 -23.3898)
(-453.192 -128.07 -39.3975)
(-1164.71 -84.0973 -97.3144)
(-898.449 -70.0768 -100.923)
(-1664.3 -192.946 84.7986)
(-1512.03 -345.306 -131.013)
(-918.38 -374.275 -233.465)
(-1060.83 -649.343 -57.9686)
(-50.7288 -809.183 -44.9429)
(547.504 -544.721 38.3381)
)
;

boundaryField
{
    aggregate
    {
        type            calculated;
        value           nonuniform List<vector> 
24
(
(-86.9083 -70.5684 102.513)
(625.845 -11.0271 -0.615227)
(-86.9083 17.7234 15.9839)
(437.491 -271.602 578.899)
(1159.09 50.4991 21.0063)
(437.491 135.743 70.2229)
(-444.159 -97.949 84.5917)
(436.551 -50.0844 1.6881)
(-444.159 -345.199 -168.692)
(799.255 -186.363 500.97)
(1676.64 87.068 27.3702)
(799.255 -61.6763 -58.5082)
(746.32 92.5789 66.9549)
(1220.18 114.947 28.2129)
(746.32 266.981 115.99)
(-1199.62 -5.50964 -256.339)
(-1085.22 -123.088 -52.689)
(-1199.62 -327.422 -170.664)
(-1973.45 -229.345 192.964)
(-1906.71 -143.504 44.2837)
(-1973.45 -556.078 -193.91)
(-1077.1 -27.9623 -73.866)
(-935.539 -46.7349 -41.3508)
(-1077.1 -626.017 -375.803)
)
;
    }
    XY-Zmin
    {
        type            calculated;
        value           nonuniform List<vector> 9((-86.9083 -11.0271 119.112) (-444.159 -50.0844 -85.7912) (726.694 84.5437 11.439) (746.32 114.947 154.732) (-1973.45 -143.504 -45.2334) (-1296.06 -79.9173 45.8742) (-249.418 -118.783 -217.169) (-539.536 -279.497 38.3999) (-448.121 -686.293 30.487));
    }
    YZ-Xmin
    {
        type            calculated;
        value           nonuniform List<vector> 9((708.596 -0.856931 -0.612291) (794.482 -1.72699 20.9042) (-6.44541 4.44732 -7.41916) (808.029 0.512834 1.67892) (1017.52 -7.34857 27.2373) (361.014 -9.42872 4.57904) (801.049 -11.4166 2.18836) (817.583 -4.76137 1.18611) (864.62 -38.9712 3.77673));
    }
    XZ-Ymin
    {
        type            calculated;
        value           nonuniform List<vector> 9((-86.9083 -41.8177 -0.615227) (437.491 -186.362 21.0063) (-141.75 -321.636 -7.45544) (746.32 244.613 28.2129) (-1199.62 -209.844 -52.689) (-457.143 -1.78429 -8.72543) (-249.418 -481.952 -41.0437) (-657.865 -296.245 -119.036) (-1000.9 -243.68 -97.8172));
    }
    XY-Zmax
    {
        type            calculated;
        value           nonuniform List<vector> 9((-141.75 -15.5624 453.33) (143.672 9.44844 449.175) (875.596 76.7066 67.7862) (-457.143 -51.9083 -434.591) (-1531.68 -74.9965 -331.75) (-878.434 -76.3926 68.8495) (-1000.9 -76.8263 -112.144) (-137.953 -393.762 -187.682) (615.492 -544.729 98.4014));
    }
    XZ-Ymax
    {
        type            calculated;
        value           nonuniform List<vector> 9((726.694 -208.311 2.18769) (587.485 -101.573 1.20408) (875.596 -455.915 3.79734) (-1296.06 -667.377 18.4816) (-710.465 -518.279 -36.3818) (-878.434 -152.7 -33.6603) (-448.121 -645.1 -51.9225) (191.868 -651.947 -37.4491) (615.492 -368.765 40.1764));
    }
    YZ-Xmax
    {
        type            calculated;
        value           nonuniform List<vector> 9((-443.417 -128.081 -39.3982) (-1851.47 -84.2958 -97.3652) (-1198.37 -70.0329 -100.913) (-2919.38 -194.614 84.7586) (-2773.7 -348.154 -131.277) (-1767.32 -374.908 -233.464) (-1597.21 -650.065 -57.932) (-368.883 -809.304 -44.9162) (300.733 -544.733 38.3412));
    }
}


// ************************************************************************* //
