/*--------------------------------*- C++ -*----------------------------------*\
| =========                 |                                                 |
| \\      /  F ield         | OpenFOAM: The Open Source CFD Toolbox           |
|  \\    /   O peration     | Version:  2312                                  |
|   \\  /    A nd           | Website:  www.openfoam.com                      |
|    \\/     M anipulation  |                                                 |
\*---------------------------------------------------------------------------*/
FoamFile
{
    version     2.0;
    format      ascii;
    arch        "LSB;label=32;scalar=64";
    class       volScalarField;
    location    "150";
    object      nuTilda;
}
// * * * * * * * * * * * * * * * * * * * * * * * * * * * * * * * * * * * * * //

dimensions      [0 2 -1 0 0 0 0];

internalField   nonuniform List<scalar> 
27
(
5.67002e-05
5.34489e-05
5.2246e-05
5.57974e-05
5.07416e-05
5.04214e-05
5.10137e-05
4.39612e-05
4.82376e-05
1.63089e-05
1.13482e-05
1.55703e-05
1.70992e-05
1.9538e-05
2.36738e-05
2.4472e-05
2.59462e-05
3.08977e-05
1.90035e-05
8.56927e-05
0.000134598
0.000154588
0.000200424
0.000233664
0.000242651
0.000267394
0.000322535
)
;

boundaryField
{
    aggregate
    {
        type            fixedValue;
        value           uniform 0;
    }
    XY-Zmin
    {
        type            fixedValue;
        value           uniform 0;
    }
    YZ-Xmin
    {
        type            freestream;
        freestreamValue uniform 4e-05;
        value           uniform 4e-05;
    }
    XZ-Ymin
    {
        type            fixedValue;
        value           uniform 0;
    }
    XY-Zmax
    {
        type            fixedValue;
        value           uniform 0;
    }
    XZ-Ymax
    {
        type            fixedValue;
        value           uniform 0;
    }
    YZ-Xmax
    {
        type            freestream;
        freestreamValue uniform 4e-05;
        value           nonuniform List<scalar> 9(1.90035e-05 8.56927e-05 0.000134598 0.000154588 0.000200424 0.000233664 0.000242651 0.000267394 0.000322535);
    }
}


// ************************************************************************* //
