/*--------------------------------*- C++ -*----------------------------------*\
| =========                 |                                                 |
| \\      /  F ield         | OpenFOAM: The Open Source CFD Toolbox           |
|  \\    /   O peration     | Version:  2312                                  |
|   \\  /    A nd           | Website:  www.openfoam.com                      |
|    \\/     M anipulation  |                                                 |
\*---------------------------------------------------------------------------*/
FoamFile
{
    version     2.0;
    format      ascii;
    arch        "LSB;label=32;scalar=64";
    class       surfaceScalarField;
    location    "150";
    object      phi;
}
// * * * * * * * * * * * * * * * * * * * * * * * * * * * * * * * * * * * * * //

dimensions      [0 3 -1 0 0 0 0];

oriented        oriented;

internalField   nonuniform List<scalar> 
54
(
0.00453398
0.0232244
0.0284164
-0.00213571
0.0208324
0.0207954
0.0218831
0.0273492
0.000301981
0.0320075
0.00301309
0.0114985
0.222101
0.0139861
0.230656
-0.00440819
0.253347
0.248528
0.0271725
0.000543191
0.246172
0.0157275
0.0019719
0.293895
0.0232429
0.310761
0.00446112
0.00239024
0.307674
0.00998338
0.00607606
0.303725
0.0143146
0.209029
-0.0100704
0.1944
-0.0043013
0.207154
0.212065
-0.0151436
-0.00502696
0.22037
-0.0154746
-0.000474986
0.253629
-0.00466614
0.272726
-0.0096487
0.00753509
0.295618
-0.00442578
0.0096234
0.29603
0.00351761
)
;

boundaryField
{
    aggregate
    {
        type            calculated;
        value           uniform 0;
    }
    XY-Zmin
    {
        type            calculated;
        value           uniform 0;
    }
    YZ-Xmin
    {
        type            calculated;
        value           nonuniform List<scalar> 9(-0.257509 -0.257553 -0.257539 -0.257556 -0.257448 -0.257487 -0.257191 -0.257201 -0.257205);
    }
    XZ-Ymin
    {
        type            calculated;
        value           uniform 0;
    }
    XY-Zmax
    {
        type            calculated;
        value           uniform 0;
    }
    XZ-Ymax
    {
        type            calculated;
        value           uniform 0;
    }
    YZ-Xmax
    {
        type            calculated;
        value           nonuniform List<scalar> 9(0.243913 0.231587 0.201887 0.263794 0.283216 0.27561 0.278258 0.296803 0.31127);
    }
}


// ************************************************************************* //
