/*--------------------------------*- C++ -*----------------------------------*\
| =========                 |                                                 |
| \\      /  F ield         | OpenFOAM: The Open Source CFD Toolbox           |
|  \\    /   O peration     | Version:  2312                                  |
|   \\  /    A nd           | Website:  www.openfoam.com                      |
|    \\/     M anipulation  |                                                 |
\*---------------------------------------------------------------------------*/
FoamFile
{
    version     2.0;
    format      ascii;
    arch        "LSB;label=32;scalar=64";
    class       volScalarField;
    location    "150";
    object      turbulenceProperties:k;
}
// * * * * * * * * * * * * * * * * * * * * * * * * * * * * * * * * * * * * * //

dimensions      [0 2 -2 0 0 0 0];

internalField   nonuniform List<scalar> 
27
(
0.0484225
0.0312748
0.0430548
0.0342549
0.0132657
0.0305241
0.0462452
0.0258537
0.0398984
0.00358874
0.00138172
0.00424953
0.00350242
0.00258309
0.00768019
0.0123132
0.00984807
0.0186284
0.00467823
0.0503227
0.122735
0.114946
0.0452544
0.198155
0.315608
0.257577
0.467307
)
;

boundaryField
{
    aggregate
    {
        type            calculated;
        value           uniform 0;
    }
    XY-Zmin
    {
        type            calculated;
        value           uniform 0;
    }
    YZ-Xmin
    {
        type            calculated;
        value           nonuniform List<scalar> 9(0.0284653 0.0215328 0.0254088 0.0229353 0.0139449 0.0193989 0.029702 0.0216927 0.0289812);
    }
    XZ-Ymin
    {
        type            calculated;
        value           uniform 0;
    }
    XY-Zmax
    {
        type            calculated;
        value           uniform 0;
    }
    XZ-Ymax
    {
        type            calculated;
        value           uniform 0;
    }
    YZ-Xmax
    {
        type            calculated;
        value           nonuniform List<scalar> 9(0.00489922 0.0510738 0.122373 0.112776 0.0467324 0.19539 0.305283 0.242626 0.461918);
    }
}


// ************************************************************************* //
