/*--------------------------------*- C++ -*----------------------------------*\
| =========                 |                                                 |
| \\      /  F ield         | OpenFOAM: The Open Source CFD Toolbox           |
|  \\    /   O peration     | Version:  2312                                  |
|   \\  /    A nd           | Website:  www.openfoam.com                      |
|    \\/     M anipulation  |                                                 |
\*---------------------------------------------------------------------------*/
FoamFile
{
    version     2.0;
    format      ascii;
    arch        "LSB;label=32;scalar=64";
    class       volSymmTensorField;
    location    "150";
    object      turbulenceProperties:R;
}
// * * * * * * * * * * * * * * * * * * * * * * * * * * * * * * * * * * * * * //

dimensions      [0 2 -2 0 0 0 0];

internalField   nonuniform List<symmTensor> 
27
(
(0.0343459 -0.00470272 -0.00485442 0.0307955 -0.000583524 0.0317037)
(0.0224166 -0.00371662 -0.00131934 0.0197708 -0.000259343 0.0203624)
(0.0289148 -0.0038097 0.0040431 0.0280453 0.000282399 0.0291496)
(0.023906 -0.00120671 -0.00458895 0.0222163 -0.000491899 0.0223875)
(0.00976363 -0.000871614 -0.00113037 0.00836232 1.99607e-05 0.00840542)
(0.0198008 0.000154262 0.00370414 0.0205029 0.000425879 0.0207445)
(0.0298961 0.00425142 -0.00380843 0.031779 -0.000466097 0.0308153)
(0.0166962 0.002519 -2.0256e-05 0.017795 8.80438e-05 0.0172162)
(0.0260312 0.00330757 0.0031334 0.0271063 0.000409186 0.0266594)
(0.00239083 -3.96824e-05 -3.86709e-05 0.0023906 -5.33474e-06 0.00239606)
(0.000920837 -9.78712e-06 -3.69174e-06 0.000920622 -5.35016e-07 0.000921977)
(0.00284249 -4.24312e-05 4.2387e-05 0.00282355 3.15763e-06 0.00283302)
(0.00232585 -2.50417e-05 -5.40812e-05 0.00233979 -2.14961e-06 0.0023392)
(0.00170341 -3.7417e-05 -3.70081e-05 0.0017323 -5.8216e-07 0.00173047)
(0.00512335 -9.69888e-06 0.000249143 0.00511667 1.18311e-05 0.00512035)
(0.00820202 0.000306912 -0.000295376 0.00823255 -2.17465e-05 0.00819189)
(0.0065202 0.000379401 4.38375e-06 0.00661184 4.4107e-06 0.00656409)
(0.0123065 0.000716977 0.000691958 0.0125043 6.78282e-05 0.012446)
(0.00312222 -7.13468e-05 -6.87004e-05 0.00311665 -2.14161e-06 0.00311759)
(0.0359491 -0.0107202 0.00132083 0.0325558 0.000284785 0.0321404)
(0.0875832 -0.0246927 0.0220953 0.0794009 0.00133821 0.0784862)
(0.0814614 -0.00164881 -0.0314979 0.0756033 0.00204216 0.0728271)
(0.0367647 -0.00968583 -0.00293818 0.0282778 -0.00267306 0.0254661)
(0.137183 -0.0138265 0.056185 0.131483 -0.00424962 0.127644)
(0.220199 0.0614061 -0.0693958 0.203088 0.00303743 0.207929)
(0.172181 0.075728 -0.00776362 0.169037 -0.00149546 0.173937)
(0.303896 0.0952952 0.101152 0.311387 0.000120585 0.319332)
)
;

boundaryField
{
    aggregate
    {
        type            calculated;
        value           nonuniform List<symmTensor> 
24
(
(0.222998 -1.20562 1.05552 -0.269518 0.126277 0.04652)
(1.93601 0.143098 -0.0295461 -0.971779 -0.00485045 -0.964229)
(-0.0202697 1.38355 0.670364 0.184351 0.0983888 -0.164081)
(0.0896531 0.507489 -1.42687 0.0822999 -0.140156 -0.171953)
(1.8625 0.122243 0.0557483 -0.934139 -0.00253403 -0.928358)
(-0.00543098 1.25252 0.800412 0.111988 0.159747 -0.106557)
(0.138166 -0.982356 1.27188 -0.17461 0.146281 0.0364435)
(2.02973 0.157764 -0.0477097 -1.01563 -0.00438584 -1.0141)
(0.173559 -1.22372 -1.03777 -0.226066 -0.108626 0.0525062)
(0.0671028 0.635029 -1.39275 0.081069 -0.125842 -0.148172)
(1.89469 0.141135 0.0364343 -0.947594 0.000231555 -0.947094)
(0.181038 -1.2577 -0.778712 -0.199165 -0.116659 0.0181271)
(0.016875 -0.740853 0.620781 -0.137738 0.0790534 0.120863)
(-1.13101 -0.156797 -0.0566982 0.56377 -0.00339245 0.567239)
(-0.118328 0.8227 0.401569 0.172682 0.093788 -0.0543545)
(-0.0160307 0.346485 -1.03818 0.0917193 -0.0844017 -0.0756886)
(-1.34736 -0.132405 -0.0555801 0.671709 -0.00155741 0.675651)
(-0.10228 0.922831 0.587835 0.118665 0.0971501 -0.0163851)
(-0.001124 -0.820995 0.985312 -0.0345006 0.0799951 0.0356246)
(-1.60525 -0.0975833 -0.0191312 0.802807 -0.00132742 0.802441)
(-0.0134582 -0.981656 -0.801732 -0.0632349 -0.0414159 0.076693)
(-0.0824031 0.502959 -1.23185 0.0786084 -0.0501029 0.00379479)
(-1.6474 -0.0718815 -0.0296716 0.824039 -0.000214886 0.823363)
(-0.0157936 -1.09486 -0.673361 -0.0278432 -0.038601 0.0436368)
)
;
    }
    XY-Zmin
    {
        type            calculated;
        value           nonuniform List<symmTensor> 9((0.218591 -0.50474 -1.37104 -0.162476 -0.173209 -0.0561149) (0.112624 -0.137505 -1.42645 -0.079912 -0.158867 -0.0327115) (-0.134224 0.605267 -1.07966 0.133851 -0.127888 0.000373155) (-0.0022245 -0.329909 -0.808032 -0.00413453 -0.128019 0.00635903) (-0.0812405 -0.198632 -1.13658 0.0292881 -0.0681007 0.0519524) (-0.0160754 0.688862 -1.33833 0.0524597 -0.0801289 -0.0363843) (0.016364 -0.313079 -0.652664 -0.00804922 -0.0278033 -0.00831478) (0.0554669 -0.0187298 -0.691706 -0.0110783 0.049599 -0.0443886) (0.0786762 0.500355 -1.04196 -0.0607497 0.0640976 -0.0179265));
    }
    YZ-Xmin
    {
        type            calculated;
        value           nonuniform List<symmTensor> 9((0.0177451 -0.00261489 -0.00253641 0.0193554 -0.000304981 0.0198301) (0.0133015 -0.0024519 -0.00102744 0.014697 -0.000162256 0.0150671) (0.0170346 -0.00247904 0.00253756 0.0165206 0.000189704 0.0172625) (0.0136521 -0.000835003 -0.00250813 0.0160623 -0.000269792 0.0161562) (0.00803788 -0.000798238 -0.000997835 0.00991011 1.47107e-05 0.00994188) (0.0124621 0.00027897 0.0026593 0.013077 0.000320296 0.0132587) (0.0191305 0.00304908 -0.00275258 0.0204859 -0.000337689 0.0197876) (0.0137437 0.00296459 -2.6889e-05 0.0151641 0.000104399 0.0144777) (0.0187632 0.00296888 0.00271933 0.0197936 0.000355319 0.0194056));
    }
    XZ-Ymin
    {
        type            calculated;
        value           nonuniform List<symmTensor> 9((0.293377 -1.34516 -0.516191 -0.305793 -0.0708751 0.0124167) (0.261301 -1.28006 -0.166587 -0.263232 -0.0751238 0.00193125) (0.0674012 -0.935856 0.504094 -0.164081 0.00871531 0.09668) (0.045822 -0.801094 -0.318528 -0.134685 -0.0709896 0.0888633) (0.0349074 -0.944575 -0.13989 -0.113005 -0.0512829 0.0780979) (0.146426 -0.871064 0.468533 -0.188167 0.0316543 0.0417409) (0.0386384 -0.639917 -0.301466 -0.0569864 -0.00638433 0.0183479) (0.0770852 -0.503176 0.0339636 -0.0562353 0.0205311 -0.0208498) (0.0878275 -0.494772 0.261701 -0.0679081 0.0273778 -0.0199193));
    }
    XY-Zmax
    {
        type            calculated;
        value           nonuniform List<symmTensor> 9((0.0103616 -0.474994 0.934163 -0.0980512 0.0806988 0.0876896) (-0.096645 0.0225517 1.0354 0.00599838 0.0817612 0.0906466) (-0.0976366 0.560287 1.05974 0.0844802 0.106126 0.0131564) (0.103067 -0.469021 0.902611 -0.106349 0.0870768 0.00328201) (-0.0113573 -0.023611 1.21468 -0.0276112 0.0601021 0.0389686) (-0.103377 0.631444 1.20961 0.0707761 0.0921324 0.0326012) (0.0722231 -0.292465 0.512857 -0.0246891 0.0371257 -0.047534) (0.0379629 -0.111713 0.945009 -0.00809002 -0.0364624 -0.0298728) (-0.0661291 0.670297 1.4483 -0.0134347 0.00968524 0.0795638));
    }
    XZ-Ymax
    {
        type            calculated;
        value           nonuniform List<symmTensor> 9((-0.172661 1.10039 -0.5422 0.21446 -0.0651385 -0.0417991) (-0.171578 1.10599 -0.00474907 0.221253 0.0151021 -0.0496757) (-0.131077 1.09353 0.530783 0.155726 0.0615528 -0.0246491) (-0.0407722 1.38773 -0.662968 0.104279 -0.0412134 -0.063507) (-0.123615 1.32608 0.00770615 0.170077 0.0189098 -0.0464616) (-0.127894 1.24209 0.60941 0.132915 0.0603257 -0.00502115) (0.100515 1.07295 -0.565457 -0.101054 0.0336715 0.000538661) (0.00916386 1.41894 -0.0649148 -0.0330097 0.0249236 0.0238458) (-0.0584197 1.47491 0.71149 0.00826657 0.0302871 0.0501532));
    }
    YZ-Xmax
    {
        type            calculated;
        value           nonuniform List<symmTensor> 9((0.00326415 -7.61972e-05 -7.06381e-05 0.00326668 -2.14161e-06 0.00326762) (0.033747 -0.0113084 0.000784302 0.034408 0.000284785 0.0339926) (0.0822512 -0.0256421 0.0214953 0.0817053 0.00133821 0.0807905) (0.0735829 -0.00424893 -0.0313467 0.0773721 0.00204216 0.0745959) (0.0302861 -0.0126787 -0.00377634 0.0329952 -0.00267306 0.0301835) (0.129709 -0.016225 0.0550077 0.132455 -0.00424962 0.128616) (0.207139 0.0572799 -0.0692159 0.199293 0.00303743 0.204134) (0.164594 0.0713707 -0.00708664 0.157879 -0.00149546 0.162779) (0.306754 0.0922821 0.10197 0.304569 0.000120585 0.312513));
    }
}


// ************************************************************************* //
