/*--------------------------------*- C++ -*----------------------------------*\
| =========                 |                                                 |
| \\      /  F ield         | OpenFOAM: The Open Source CFD Toolbox           |
|  \\    /   O peration     | Version:  2312                                  |
|   \\  /    A nd           | Website:  www.openfoam.com                      |
|    \\/     M anipulation  |                                                 |
\*---------------------------------------------------------------------------*/
FoamFile
{
    version     2.0;
    format      ascii;
    arch        "LSB;label=32;scalar=64";
    class       volScalarField;
    location    "150";
    object      turbulenceProperties:L;
}
// * * * * * * * * * * * * * * * * * * * * * * * * * * * * * * * * * * * * * //

dimensions      [0 1 0 0 0 0 0];

internalField   nonuniform List<scalar> 
27
(
0.00108312
0.0013108
0.00110661
0.00127752
0.00197136
0.00129664
0.00105792
0.00135831
0.00111781
0.00459652
0.00877608
0.00431316
0.00455627
0.00501271
0.00270187
0.00210997
0.00231587
0.00161191
0.0037678
0.00143037
0.00140618
0.00166672
0.00344106
0.0019169
0.00157729
0.00192391
0.00172286
)
;

boundaryField
{
    aggregate
    {
        type            calculated;
        value           uniform 0;
    }
    XY-Zmin
    {
        type            calculated;
        value           uniform 0;
    }
    YZ-Xmin
    {
        type            calculated;
        value           nonuniform List<scalar> 9(0.00138922 0.00159727 0.00147041 0.00154767 0.00198482 0.00168283 0.00135999 0.00159137 0.0013768);
    }
    XZ-Ymin
    {
        type            calculated;
        value           uniform 0;
    }
    XY-Zmax
    {
        type            calculated;
        value           uniform 0;
    }
    XZ-Ymax
    {
        type            calculated;
        value           uniform 0;
    }
    YZ-Xmax
    {
        type            calculated;
        value           nonuniform List<scalar> 9(0.00368185 0.00141981 0.00140825 0.00168268 0.0033862 0.00193042 0.00160374 0.0019823 0.00173288);
    }
}


// ************************************************************************* //
