/*--------------------------------*- C++ -*----------------------------------*\
| =========                 |                                                 |
| \\      /  F ield         | OpenFOAM: The Open Source CFD Toolbox           |
|  \\    /   O peration     | Version:  2312                                  |
|   \\  /    A nd           | Website:  www.openfoam.com                      |
|    \\/     M anipulation  |                                                 |
\*---------------------------------------------------------------------------*/
FoamFile
{
    version     2.0;
    format      ascii;
    arch        "LSB;label=32;scalar=64";
    class       volSymmTensorField;
    location    "150";
    object      turbulenceProperties:devReff;
}
// * * * * * * * * * * * * * * * * * * * * * * * * * * * * * * * * * * * * * //

dimensions      [0 2 -2 0 0 0 0];

internalField   nonuniform List<symmTensor> 
27
(
(0.0031431 -0.00716061 -0.0073916 -0.00226299 -0.000888506 -0.000880108)
(0.00254682 -0.0060419 -0.00214478 -0.0017543 -0.000421599 -0.000792519)
(0.000353687 -0.0063689 0.00675909 -0.00109995 0.000472104 0.000746268)
(0.00165589 -0.00186855 -0.00710585 -0.000960461 -0.000761691 -0.000695429)
(0.00159774 -0.00151398 -0.00196343 -0.000836305 3.46714e-05 -0.00076144)
(-0.000961189 0.00027028 0.00648997 0.00026898 0.000746175 0.000692208)
(-0.00161077 0.00733158 -0.00656765 0.00163641 -0.000803786 -2.56403e-05)
(-0.00117942 0.00550594 -4.42748e-05 0.00122237 0.000192443 -4.29495e-05)
(-0.00106084 0.00617972 0.0058543 0.000947829 0.000764505 0.000113009)
(-8.69331e-05 -0.00207162 -0.00201881 -9.89269e-05 -0.0002785 0.00018586)
(-6.71543e-05 -0.00213053 -0.000803645 -0.000113813 -0.000116466 0.000180967)
(0.000592357 -0.00265355 0.00265079 -0.000592442 0.000197471 8.50094e-08)
(-0.000395051 -0.0010881 -0.00234992 0.000210423 -9.34041e-05 0.000184628)
(-0.000486171 -0.000975594 -0.00096493 0.000266966 -1.5179e-05 0.000219205)
(4.13424e-05 -0.000124312 0.0031933 -4.42344e-05 0.000151642 2.89199e-06)
(-7.74584e-05 0.00349505 -0.00336368 0.000270266 -0.000247644 -0.000192807)
(-0.000419364 0.00352186 4.0693e-05 0.000431312 4.09431e-05 -1.19488e-05)
(-0.000590289 0.00376466 0.00363329 0.000448012 0.000356148 0.000142277)
(9.8376e-05 -0.0020669 -0.00199024 -6.27968e-05 -6.2042e-05 -3.55792e-05)
(0.00284011 -0.0126827 0.00156264 -0.00117431 0.000336921 -0.00166581)
(0.00625048 -0.0267965 0.0239778 -0.0026289 0.00145222 -0.00362159)
(0.00517356 -0.0017658 -0.0337328 -0.00110018 0.00218707 -0.00407337)
(0.00693885 -0.0101906 -0.0030913 -0.00199031 -0.00281236 -0.00494854)
(0.00530309 -0.0144348 0.058657 -0.00064758 -0.00443659 -0.00465551)
(0.0102073 0.0640001 -0.0723273 -0.0076266 0.00316575 -0.00258067)
(0.000480334 0.0786131 -0.0080594 -0.00278349 -0.00155244 0.00230315)
(-0.00788185 0.0982812 0.104321 -0.000155617 0.000124364 0.00803747)
)
;

boundaryField
{
    aggregate
    {
        type            calculated;
        value           nonuniform List<symmTensor> 
24
(
(0.224465 -1.21356 1.06247 -0.271291 0.127108 0.0468261)
(2.05774 0.152096 -0.0314039 -1.03288 -0.00515543 -1.02486)
(-0.0204462 1.39559 0.6762 0.185956 0.0992454 -0.16551)
(0.0904472 0.511985 -1.43951 0.0830288 -0.141398 -0.173476)
(1.98175 0.13007 0.0593179 -0.993953 -0.00269629 -0.987802)
(-0.00546733 1.26091 0.80577 0.112738 0.160816 -0.10727)
(0.139344 -0.990733 1.28273 -0.176098 0.147529 0.0367542)
(2.15459 0.167469 -0.0506445 -1.0781 -0.00465563 -1.07648)
(0.174678 -1.23161 -1.04446 -0.227522 -0.109326 0.0528445)
(0.0675486 0.639248 -1.40201 0.0816076 -0.126678 -0.149156)
(2.01506 0.150101 0.038749 -1.00779 0.000246266 -1.00726)
(0.182629 -1.26876 -0.785558 -0.200916 -0.117685 0.0182864)
(0.0170151 -0.747004 0.625935 -0.138881 0.0797097 0.121866)
(-1.22208 -0.169422 -0.0612636 0.609166 -0.00366561 0.612914)
(-0.119629 0.831743 0.405984 0.174581 0.094819 -0.054952)
(-0.0161944 0.350023 -1.04878 0.0926559 -0.0852635 -0.0764615)
(-1.44766 -0.142261 -0.0597174 0.72171 -0.00167334 0.725945)
(-0.103069 0.92995 0.59237 0.11958 0.0978995 -0.0165115)
(-0.00113464 -0.828773 0.994647 -0.0348275 0.080753 0.0359621)
(-1.7156 -0.104292 -0.0204464 0.857997 -0.00141868 0.857605)
(-0.0135545 -0.988683 -0.807471 -0.0636875 -0.0417124 0.077242)
(-0.0829864 0.506519 -1.24057 0.0791647 -0.0504575 0.00382165)
(-1.75931 -0.0767643 -0.0316871 0.880015 -0.000229483 0.879293)
(-0.0159416 -1.10512 -0.679669 -0.028104 -0.0389626 0.0440455)
)
;
    }
    XY-Zmin
    {
        type            calculated;
        value           nonuniform List<symmTensor> 9((0.219655 -0.507198 -1.37772 -0.163267 -0.174052 -0.0563881) (0.113166 -0.138167 -1.43331 -0.0802967 -0.159632 -0.032869) (-0.134907 0.608348 -1.08515 0.134532 -0.128539 0.000375054) (-0.0022382 -0.331941 -0.813009 -0.00415999 -0.128807 0.0063982) (-0.0816753 -0.199695 -1.14267 0.0294448 -0.0684651 0.0522305) (-0.0161498 0.69205 -1.34452 0.0527025 -0.0804998 -0.0365527) (0.0164683 -0.315074 -0.656824 -0.00810052 -0.0279805 -0.00836778) (0.0558134 -0.0188468 -0.696027 -0.0111475 0.0499088 -0.0446659) (0.0790841 0.502949 -1.04736 -0.0610646 0.0644299 -0.0180194));
    }
    YZ-Xmin
    {
        type            calculated;
        value           nonuniform List<symmTensor> 9((-0.00246363 -0.00522979 -0.00507282 0.00075714 -0.000609963 0.00170649) (-0.00210745 -0.00490379 -0.00205488 0.000683571 -0.000324512 0.00142387) (0.000190699 -0.00495808 0.00507511 -0.000837212 0.000379408 0.000646513) (-0.00327619 -0.00167001 -0.00501627 0.00154422 -0.000539584 0.00173197) (-0.00251749 -0.00159648 -0.00199567 0.00122698 2.94214e-05 0.00129051) (-0.000940948 0.00055794 0.0053186 0.000288803 0.000640592 0.000652145) (-0.00134169 0.00609816 -0.00550515 0.00136911 -0.000675378 -2.74187e-05) (-0.00143635 0.00592917 -5.3778e-05 0.0014046 0.000208798 3.17455e-05) (-0.0011151 0.00593777 0.00543867 0.000945551 0.000710638 0.000169552));
    }
    XZ-Ymin
    {
        type            calculated;
        value           nonuniform List<symmTensor> 9((0.294819 -1.35177 -0.518728 -0.307296 -0.0712235 0.0124777) (0.262596 -1.28641 -0.167413 -0.264537 -0.075496 0.00194082) (0.0677643 -0.940898 0.50681 -0.164965 0.00876227 0.0972009) (0.0461069 -0.806074 -0.320508 -0.135523 -0.0714309 0.0894157) (0.035107 -0.949977 -0.14069 -0.113651 -0.0515762 0.0785445) (0.147241 -0.875913 0.471141 -0.189215 0.0318305 0.0419733) (0.0388847 -0.643995 -0.303387 -0.0573496 -0.00642502 0.0184649) (0.077634 -0.506758 0.0342054 -0.0566357 0.0206773 -0.0209983) (0.0884593 -0.498331 0.263584 -0.0683966 0.0275748 -0.0200626));
    }
    XY-Zmax
    {
        type            calculated;
        value           nonuniform List<symmTensor> 9((0.0104174 -0.477553 0.939197 -0.0985795 0.0811336 0.0881621) (-0.0971422 0.0226677 1.04072 0.00602924 0.0821818 0.091113) (-0.0981371 0.56316 1.06517 0.0849133 0.10667 0.0132238) (0.103641 -0.471632 0.907636 -0.106941 0.0875615 0.00330028) (-0.0114125 -0.0237256 1.22058 -0.0277453 0.0603939 0.0391577) (-0.103876 0.634491 1.21545 0.0711177 0.0925771 0.0327585) (0.0727427 -0.294569 0.516546 -0.0248667 0.0373928 -0.0478759) (0.0381696 -0.112321 0.950155 -0.00813408 -0.036661 -0.0300355) (-0.0664237 0.673283 1.45475 -0.0134945 0.00972839 0.0799182));
    }
    XZ-Ymax
    {
        type            calculated;
        value           nonuniform List<symmTensor> 9((-0.17354 1.10599 -0.54496 0.215552 -0.06547 -0.0420118) (-0.172445 1.11159 -0.00477308 0.222372 0.0151785 -0.0499269) (-0.131748 1.09914 0.533504 0.156524 0.0618684 -0.0247755) (-0.0409609 1.39416 -0.666037 0.104762 -0.0414041 -0.0638009) (-0.124197 1.33233 0.00774246 0.170878 0.0189989 -0.0466805) (-0.128511 1.24809 0.612351 0.133557 0.0606168 -0.00504539) (0.101036 1.07851 -0.568389 -0.101578 0.0338461 0.000541454) (0.00920562 1.42541 -0.0652106 -0.0331601 0.0250372 0.0239545) (-0.05868 1.48148 0.71466 0.00830339 0.0304221 0.0503766));
    }
    YZ-Xmax
    {
        type            calculated;
        value           nonuniform List<symmTensor> 9((-5.78251e-05 -0.00220742 -0.00204637 1.53038e-05 -6.2042e-05 4.25214e-05) (-0.000357545 -0.0133786 0.000927885 0.000424522 0.000336921 -6.69763e-05) (0.000725831 -0.0278268 0.0233267 0.00013343 0.00145222 -0.000859261) (-0.00171431 -0.00455042 -0.0335709 0.00234375 0.00218707 -0.00062944) (-0.000914157 -0.0133395 -0.00397314 0.00193619 -0.00281236 -0.00102203) (-0.000575151 -0.0169389 0.0574279 0.00229154 -0.00443659 -0.00171639) (0.00376961 0.0596997 -0.0721398 -0.00440777 0.00316575 0.000638161) (0.00295172 0.0740898 -0.00735662 -0.00401918 -0.00155244 0.00106746) (-0.00122872 0.0951738 0.105165 -0.00348218 0.000124364 0.00471091));
    }
}


// ************************************************************************* //
