/*--------------------------------*- C++ -*----------------------------------*\
| =========                 |                                                 |
| \\      /  F ield         | OpenFOAM: The Open Source CFD Toolbox           |
|  \\    /   O peration     | Version:  2312                                  |
|   \\  /    A nd           | Website:  www.openfoam.com                      |
|    \\/     M anipulation  |                                                 |
\*---------------------------------------------------------------------------*/
FoamFile
{
    version     2.0;
    format      ascii;
    arch        "LSB;label=32;scalar=64";
    class       volScalarField;
    location    "150";
    object      turbulenceProperties:nuEff;
}
// * * * * * * * * * * * * * * * * * * * * * * * * * * * * * * * * * * * * * //

dimensions      [0 2 -1 0 0 0 0];

internalField   nonuniform List<scalar> 
27
(
2.91331e-05
2.59835e-05
2.48863e-05
2.82325e-05
2.35688e-05
2.32964e-05
2.38025e-05
1.84334e-05
2.1516e-05
1.01953e-05
1.00461e-05
1.01625e-05
1.02356e-05
1.03988e-05
1.08462e-05
1.09627e-05
1.12073e-05
1.23525e-05
1.03575e-05
6.46238e-05
0.00012737
0.000150934
0.000201893
0.000237288
0.000246721
0.00027248
0.000329131
)
;

boundaryField
{
    aggregate
    {
        type            calculated;
        value           nonuniform List<scalar> 
24
(
0.00152989
0.000169041
0.00115859
0.00113896
0.000166175
0.00150397
0.00118275
0.000172564
0.00156175
0.0015151
0.000167406
0.00114741
0.00121448
0.00013419
0.000919729
0.000989298
0.000144339
0.00130635
0.00106554
0.000155464
0.00140699
0.00142286
0.000157214
0.00107755
)
;
    }
    XY-Zmin
    {
        type            calculated;
        value           nonuniform List<scalar> 9(0.00206355 0.00208761 0.00197505 0.00163362 0.00187849 0.0021707 0.00157888 0.00161095 0.00193887);
    }
    YZ-Xmin
    {
        type            calculated;
        value           uniform 2e-05;
    }
    XZ-Ymin
    {
        type            calculated;
        value           nonuniform List<scalar> 9(0.00204451 0.00202817 0.00186603 0.00161861 0.00175873 0.00180624 0.00157888 0.00141458 0.00140016);
    }
    XY-Zmax
    {
        type            calculated;
        value           nonuniform List<scalar> 9(0.00186603 0.00195382 0.00196076 0.00180624 0.00207006 0.00208188 0.00140016 0.00184639 0.00225473);
    }
    XZ-Ymax
    {
        type            calculated;
        value           nonuniform List<scalar> 9(0.00197505 0.00198723 0.00196076 0.0021707 0.00213237 0.00208188 0.00193887 0.0022047 0.00225473);
    }
    YZ-Xmax
    {
        type            calculated;
        value           nonuniform List<scalar> 9(1.03575e-05 6.46238e-05 0.00012737 0.000150934 0.000201893 0.000237288 0.000246721 0.00027248 0.000329131);
    }
}


// ************************************************************************* //
