/*--------------------------------*- C++ -*----------------------------------*\
| =========                 |                                                 |
| \\      /  F ield         | OpenFOAM: The Open Source CFD Toolbox           |
|  \\    /   O peration     | Version:  2312                                  |
|   \\  /    A nd           | Website:  www.openfoam.com                      |
|    \\/     M anipulation  |                                                 |
\*---------------------------------------------------------------------------*/
FoamFile
{
    version     2.0;
    format      ascii;
    arch        "LSB;label=32;scalar=64";
    class       volScalarField;
    location    "150";
    object      turbulenceProperties:I;
}
// * * * * * * * * * * * * * * * * * * * * * * * * * * * * * * * * * * * * * //

dimensions      [0 0 0 0 0 0 0];

internalField   nonuniform List<scalar> 
27
(
0.00575914
0.00472567
0.00656525
0.0047239
0.0030502
0.00523023
0.00635454
0.00471628
0.00595419
0.00207763
0.00117931
0.00214512
0.00171507
0.00145291
0.00244734
0.00292698
0.00267427
0.00378551
0.00264753
0.00991793
0.0156825
0.0128084
0.00755226
0.0142651
0.0169741
0.0131396
0.0172278
)
;

boundaryField
{
    aggregate
    {
        type            calculated;
        value           uniform 0;
    }
    XY-Zmin
    {
        type            calculated;
        value           uniform 0;
    }
    YZ-Xmin
    {
        type            calculated;
        value           nonuniform List<scalar> 9(0.00529254 0.00460375 0.00500541 0.00475002 0.00370465 0.00437241 0.0054099 0.00462313 0.00534412);
    }
    XZ-Ymin
    {
        type            calculated;
        value           uniform 0;
    }
    XY-Zmax
    {
        type            calculated;
        value           uniform 0;
    }
    XZ-Ymax
    {
        type            calculated;
        value           uniform 0;
    }
    YZ-Xmax
    {
        type            calculated;
        value           nonuniform List<scalar> 9(0.00270907 0.00998237 0.0156382 0.0126734 0.00766907 0.0141648 0.0166999 0.012761 0.0171341);
    }
}


// ************************************************************************* //
