/*--------------------------------*- C++ -*----------------------------------*\
| =========                 |                                                 |
| \\      /  F ield         | OpenFOAM: The Open Source CFD Toolbox           |
|  \\    /   O peration     | Version:  2312                                  |
|   \\  /    A nd           | Website:  www.openfoam.com                      |
|    \\/     M anipulation  |                                                 |
\*---------------------------------------------------------------------------*/
FoamFile
{
    version     2.0;
    format      ascii;
    arch        "LSB;label=32;scalar=64";
    class       volScalarField;
    location    "150";
    object      turbulenceProperties:nut;
}
// * * * * * * * * * * * * * * * * * * * * * * * * * * * * * * * * * * * * * //

dimensions      [0 2 -1 0 0 0 0];

internalField   nonuniform List<scalar> 
27
(
1.91331e-05
1.59835e-05
1.48863e-05
1.82325e-05
1.35688e-05
1.32964e-05
1.38025e-05
8.43339e-06
1.1516e-05
1.95294e-07
4.61495e-08
1.62502e-07
2.35562e-07
3.98827e-07
8.46228e-07
9.62669e-07
1.20734e-06
2.35253e-06
3.57528e-07
5.46238e-05
0.00011737
0.000140934
0.000191893
0.000227288
0.000236721
0.00026248
0.000319131
)
;

boundaryField
{
    aggregate
    {
        type            nutUSpaldingWallFunction;
        value           nonuniform List<scalar> 
24
(
0.00151989
0.000159041
0.00114859
0.00112896
0.000156175
0.00149397
0.00117275
0.000162564
0.00155175
0.0015051
0.000157406
0.00113741
0.00120448
0.00012419
0.000909729
0.000979298
0.000134339
0.00129635
0.00105554
0.000145464
0.00139699
0.00141286
0.000147214
0.00106755
)
;
    }
    XY-Zmin
    {
        type            nutUSpaldingWallFunction;
        value           nonuniform List<scalar> 9(0.00205355 0.00207761 0.00196505 0.00162362 0.00186849 0.0021607 0.00156888 0.00160095 0.00192887);
    }
    YZ-Xmin
    {
        type            freestream;
        freestreamValue uniform 1e-05;
        value           uniform 1e-05;
    }
    XZ-Ymin
    {
        type            nutUSpaldingWallFunction;
        value           nonuniform List<scalar> 9(0.00203451 0.00201817 0.00185603 0.00160861 0.00174873 0.00179624 0.00156888 0.00140458 0.00139016);
    }
    XY-Zmax
    {
        type            nutUSpaldingWallFunction;
        value           nonuniform List<scalar> 9(0.00185603 0.00194382 0.00195076 0.00179624 0.00206006 0.00207188 0.00139016 0.00183639 0.00224473);
    }
    XZ-Ymax
    {
        type            nutUSpaldingWallFunction;
        value           nonuniform List<scalar> 9(0.00196505 0.00197723 0.00195076 0.0021607 0.00212237 0.00207188 0.00192887 0.0021947 0.00224473);
    }
    YZ-Xmax
    {
        type            freestream;
        freestreamValue uniform 1e-05;
        value           nonuniform List<scalar> 9(3.57528e-07 5.46238e-05 0.00011737 0.000140934 0.000191893 0.000227288 0.000236721 0.00026248 0.000319131);
    }
}


// ************************************************************************* //
