/*--------------------------------*- C++ -*----------------------------------*\
| =========                 |                                                 |
| \\      /  F ield         | OpenFOAM: The Open Source CFD Toolbox           |
|  \\    /   O peration     | Version:  2312                                  |
|   \\  /    A nd           | Website:  www.openfoam.com                      |
|    \\/     M anipulation  |                                                 |
\*---------------------------------------------------------------------------*/
FoamFile
{
    version     2.0;
    format      ascii;
    arch        "LSB;label=32;scalar=64";
    class       volVectorField;
    location    "150";
    object      U;
}
// * * * * * * * * * * * * * * * * * * * * * * * * * * * * * * * * * * * * * //

dimensions      [0 1 -1 0 0 0 0];

internalField   nonuniform List<vector> 
27
(
(30.9492 3.92263 0.214935)
(30.3194 3.50037 1.45594)
(25.6167 2.8099 1.34967)
(31.7884 3.58289 -0.135139)
(30.6321 3.33735 1.04911)
(27.1888 1.79889 1.19406)
(27.4434 3.21788 -0.00517644)
(27.6287 3.39112 0.174536)
(27.2864 2.38842 0.132775)
(23.2526 3.57917 0.876719)
(25.5802 2.60101 1.10375)
(24.6497 2.80073 0.467318)
(28.1122 1.84464 -0.335371)
(28.5315 1.26695 0.346906)
(29.1842 1.43334 1.04018)
(30.9019 1.79586 0.117411)
(30.1928 2.4886 0.464507)
(29.3768 1.87193 0.365686)
(21.0712 0.960288 -0.170234)
(18.4431 0.534518 -0.790409)
(18.1922 1.19848 -0.551454)
(21.5486 -1.65815 -0.126565)
(22.9325 -1.67629 -0.490494)
(25.471 -0.635986 0.00413124)
(26.9731 -1.62663 0.266166)
(31.5123 -0.800026 0.973415)
(32.3867 -0.00422247 0.875688)
)
;

boundaryField
{
    aggregate
    {
        type            noSlip;
    }
    XY-Zmin
    {
        type            noSlip;
    }
    YZ-Xmin
    {
        type            freestreamVelocity;
        freestreamValue uniform (25.75 3.62 0);
        value           nonuniform List<vector> 9((25.7753 3.62147 0.00104529) (25.7722 3.61942 0.00707445) (25.7494 3.61606 0.00655754) (25.7793 3.61982 -0.000656388) (25.7737 3.61863 0.00509473) (25.757 3.61118 0.00578253) (25.7582 3.61805 -2.51601e-05) (25.7591 3.61889 0.000848734) (25.7575 3.61403 0.000644069));
    }
    XZ-Ymin
    {
        type            noSlip;
    }
    XY-Zmax
    {
        type            noSlip;
    }
    XZ-Ymax
    {
        type            noSlip;
    }
    YZ-Xmax
    {
        type            freestreamVelocity;
        freestreamValue uniform (25.75 3.62 0);
        value           nonuniform List<vector> 9((21.0733 0.961451 -0.170159) (18.4602 0.54174 -0.788559) (18.2165 1.20628 -0.549677) (21.574 -1.6262 -0.125799) (22.9518 -1.63998 -0.487131) (25.4723 -0.615352 0.00411121) (26.9657 -1.59484 0.264553) (31.4918 -0.784301 0.969952) (32.3756 0.00184748 0.874222));
    }
}


// ************************************************************************* //
