/*--------------------------------*- C++ -*----------------------------------*\
| =========                 |                                                 |
| \\      /  F ield         | OpenFOAM: The Open Source CFD Toolbox           |
|  \\    /   O peration     | Version:  2312                                  |
|   \\  /    A nd           | Website:  www.openfoam.com                      |
|    \\/     M anipulation  |                                                 |
\*---------------------------------------------------------------------------*/
FoamFile
{
    version     2.0;
    format      ascii;
    arch        "LSB;label=32;scalar=64";
    class       volScalarField;
    location    "300";
    object      div(phi);
}
// * * * * * * * * * * * * * * * * * * * * * * * * * * * * * * * * * * * * * //

dimensions      [0 0 -1 0 0 0 0];

internalField   nonuniform List<scalar> 
27
(
-2.80906
14.4284
-5.53505
-13.9785
26.0901
5.22608
26.5237
21.1801
32.0118
32.0996
-44.4807
-18.5427
-67.0045
-34.4168
-51.1648
-40.1033
-18.3504
-28.0795
9.665
27.485
-5.6331
52.2095
78.4501
30.65
22.6954
7.65844
2.07315
)
;

boundaryField
{
    aggregate
    {
        type            extrapolatedCalculated;
        value           nonuniform List<scalar> 
24
(
-2.80906
-2.80906
-2.80906
14.4284
14.4284
14.4284
-13.9785
-13.9785
-13.9785
26.0901
26.0901
26.0901
32.0996
32.0996
32.0996
-44.4807
-44.4807
-44.4807
-67.0045
-67.0045
-67.0045
-34.4168
-34.4168
-34.4168
)
;
    }
    XY-Zmin
    {
        type            extrapolatedCalculated;
        value           nonuniform List<scalar> 9(-2.80906 -13.9785 26.5237 32.0996 -67.0045 -40.1033 9.665 52.2095 22.6954);
    }
    YZ-Xmin
    {
        type            extrapolatedCalculated;
        value           nonuniform List<scalar> 9(-2.80906 14.4284 -5.53505 -13.9785 26.0901 5.22608 26.5237 21.1801 32.0118);
    }
    XZ-Ymin
    {
        type            extrapolatedCalculated;
        value           nonuniform List<scalar> 9(-2.80906 14.4284 -5.53505 32.0996 -44.4807 -18.5427 9.665 27.485 -5.6331);
    }
    XY-Zmax
    {
        type            extrapolatedCalculated;
        value           nonuniform List<scalar> 9(-5.53505 5.22608 32.0118 -18.5427 -51.1648 -28.0795 -5.6331 30.65 2.07315);
    }
    XZ-Ymax
    {
        type            extrapolatedCalculated;
        value           nonuniform List<scalar> 9(26.5237 21.1801 32.0118 -40.1033 -18.3504 -28.0795 22.6954 7.65844 2.07315);
    }
    YZ-Xmax
    {
        type            extrapolatedCalculated;
        value           nonuniform List<scalar> 9(9.665 27.485 -5.6331 52.2095 78.4501 30.65 22.6954 7.65844 2.07315);
    }
}


// ************************************************************************* //
