/*--------------------------------*- C++ -*----------------------------------*\
| =========                 |                                                 |
| \\      /  F ield         | OpenFOAM: The Open Source CFD Toolbox           |
|  \\    /   O peration     | Version:  2312                                  |
|   \\  /    A nd           | Website:  www.openfoam.com                      |
|    \\/     M anipulation  |                                                 |
\*---------------------------------------------------------------------------*/
FoamFile
{
    version     2.0;
    format      ascii;
    arch        "LSB;label=32;scalar=64";
    class       volScalarField;
    location    "300";
    object      magR;
}
// * * * * * * * * * * * * * * * * * * * * * * * * * * * * * * * * * * * * * //

dimensions      [0 2 -2 0 0 0 0];

internalField   nonuniform List<scalar> 
27
(
0.0494471
0.0363312
0.0531117
0.0434684
0.0158845
0.0376818
0.0571526
0.036589
0.0468169
0.0339195
0.0176591
0.0121566
0.00256753
0.00213947
0.00908049
0.0140344
0.0158755
0.0392156
0.000932
0.00245436
0.00325416
0.022846
0.0324088
0.218438
0.358137
0.380226
0.821711
)
;

boundaryField
{
    aggregate
    {
        type            calculated;
        value           nonuniform List<scalar> 
24
(
2.30037
2.38011
2.19267
2.16116
2.28898
2.11988
2.29326
2.4968
2.29269
2.17961
2.32963
2.11573
1.38375
1.40511
1.31928
1.55703
1.66261
1.56141
1.81796
1.97103
1.79619
1.88647
2.02063
1.81938
)
;
    }
    XY-Zmin
    {
        type            calculated;
        value           nonuniform List<scalar> 9(2.09912 2.04398 1.76991 1.2475 1.63766 2.1328 1.02465 0.983703 1.64022);
    }
    YZ-Xmin
    {
        type            calculated;
        value           nonuniform List<scalar> 9(0.0333089 0.025182 0.0297716 0.0268238 0.0162762 0.022729 0.0348017 0.0254171 0.0339567);
    }
    XZ-Ymin
    {
        type            calculated;
        value           nonuniform List<scalar> 9(2.08364 1.86586 1.51684 1.23473 1.35973 1.42025 1.00295 0.720454 0.800509);
    }
    XY-Zmax
    {
        type            calculated;
        value           nonuniform List<scalar> 9(1.4923 1.47514 1.70682 1.45136 1.72093 1.93852 0.841417 1.34759 2.25927);
    }
    XZ-Ymax
    {
        type            calculated;
        value           nonuniform List<scalar> 9(1.75944 1.58988 1.73339 2.17968 1.88797 1.96725 1.72173 2.00953 2.31743);
    }
    YZ-Xmax
    {
        type            calculated;
        value           nonuniform List<scalar> 9(0.000976035 0.00249103 0.00324461 0.0224192 0.0337415 0.215444 0.346368 0.358183 0.812225);
    }
}


// ************************************************************************* //
