/*--------------------------------*- C++ -*----------------------------------*\
| =========                 |                                                 |
| \\      /  F ield         | OpenFOAM: The Open Source CFD Toolbox           |
|  \\    /   O peration     | Version:  2312                                  |
|   \\  /    A nd           | Website:  www.openfoam.com                      |
|    \\/     M anipulation  |                                                 |
\*---------------------------------------------------------------------------*/
FoamFile
{
    version     2.0;
    format      ascii;
    arch        "LSB;label=32;scalar=64";
    class       volVectorField;
    location    "300";
    object      momentError;
}
// * * * * * * * * * * * * * * * * * * * * * * * * * * * * * * * * * * * * * //

dimensions      [0 1 -2 0 0 0 0];

internalField   nonuniform List<vector> 
27
(
(0.00271573 -0.00205231 -0.000599522)
(-0.00861908 -0.0105866 -0.00122541)
(-0.00662864 -0.0152522 0.0163222)
(0.162237 -0.00156032 -0.208808)
(-0.0130515 -0.0102057 -0.0015202)
(1.53243 0.0511738 -1.6272)
(-1.1737 -0.793353 2.32402)
(2.38835 0.0796831 -2.48878)
(2.22914 0.255488 -0.449142)
(-0.055514 -0.0310963 -0.0259273)
(-61.68 -7.46481 -3.59927)
(-0.104842 0.00683822 -0.0436752)
(-89.7078 -19.9513 21.853)
(-94.9729 -3.16125 -29.4333)
(-38.4224 -1.67935 -17.7549)
(-56.6948 -7.99089 23.2552)
(-156.341 -24.4811 -27.8442)
(-53.441 -23.8716 -23.4751)
(-453.195 -128.087 -39.4386)
(-1164.69 -84.06 -97.3124)
(-898.385 -70.0155 -101.048)
(-1664.23 -192.947 84.9866)
(-1512.19 -345.414 -131.046)
(-918.501 -374.497 -233.746)
(-1061.01 -649.825 -57.8144)
(-50.8483 -809.764 -45.0793)
(547.316 -545.047 38.2967)
)
;

boundaryField
{
    aggregate
    {
        type            calculated;
        value           nonuniform List<vector> 
24
(
(-86.935 -70.562 102.523)
(625.8 -11.0212 -0.604574)
(-86.935 17.7367 15.9988)
(437.449 -271.606 578.898)
(1159.02 50.4952 21.0057)
(437.449 135.746 70.2262)
(-444.19 -97.9526 84.5874)
(436.488 -50.0854 1.67928)
(-444.19 -345.203 -168.703)
(799.181 -186.372 500.977)
(1676.52 87.0624 27.37)
(799.181 -61.6959 -58.5165)
(746.335 92.4848 66.8574)
(1220.17 114.854 28.1127)
(746.335 266.884 115.887)
(-1199.5 -5.57571 -256.332)
(-1085.13 -123.144 -52.699)
(-1199.5 -327.487 -170.679)
(-1973.34 -229.375 193.03)
(-1906.64 -143.534 44.3487)
(-1973.34 -556.13 -193.858)
(-1076.93 -27.9907 -73.8698)
(-935.398 -46.7532 -41.3719)
(-1076.93 -626.062 -375.839)
)
;
    }
    XY-Zmin
    {
        type            calculated;
        value           nonuniform List<vector> 9((-86.935 -11.0212 119.126) (-444.19 -50.0854 -85.7974) (726.722 84.5565 11.4312) (746.335 114.854 154.632) (-1973.34 -143.534 -45.1807) (-1295.98 -80.0113 45.9282) (-249.541 -118.81 -217.217) (-539.204 -279.515 38.5742) (-448.86 -686.77 30.7388));
    }
    YZ-Xmin
    {
        type            calculated;
        value           nonuniform List<vector> 9((708.57 -0.848252 -0.601636) (794.445 -1.72713 20.9037) (-6.46822 4.44647 -7.41744) (807.981 0.514074 1.67011) (1017.45 -7.34817 27.2371) (360.958 -9.41986 4.58257) (801.01 -11.4074 2.18776) (817.517 -4.74476 1.18957) (864.59 -38.9768 3.78371));
    }
    XZ-Ymin
    {
        type            calculated;
        value           nonuniform List<vector> 9((-86.935 -41.8039 -0.604574) (437.449 -186.359 21.0057) (-141.796 -321.638 -7.45374) (746.335 244.515 28.1127) (-1199.5 -209.918 -52.699) (-457.178 -1.81684 -8.71695) (-249.541 -481.978 -41.0892) (-657.774 -296.216 -119.038) (-1000.87 -243.618 -97.9448));
    }
    XY-Zmax
    {
        type            calculated;
        value           nonuniform List<vector> 9((-141.796 -15.5686 453.333) (143.623 9.45246 449.175) (875.709 76.7146 67.7934) (-457.178 -51.9201 -434.571) (-1531.61 -75.0027 -331.799) (-878.345 -76.4188 68.7847) (-1000.87 -76.761 -112.268) (-137.831 -393.996 -188.002) (614.456 -545.06 98.3351));
    }
    XZ-Ymax
    {
        type            calculated;
        value           nonuniform List<vector> 9((726.722 -208.311 2.1871) (587.561 -101.568 1.20755) (875.709 -455.926 3.80435) (-1295.98 -667.487 18.552) (-710.397 -518.343 -36.3687) (-878.345 -152.752 -33.7294) (-448.86 -645.412 -51.7561) (190.484 -652.265 -37.6256) (614.456 -368.84 40.1084));
    }
    YZ-Xmax
    {
        type            calculated;
        value           nonuniform List<vector> 9((-443.488 -128.099 -39.4394) (-1851.52 -84.2587 -97.3633) (-1198.38 -69.9715 -101.038) (-2919.37 -194.615 84.9465) (-2773.88 -348.262 -131.31) (-1767.51 -375.129 -233.745) (-1596.94 -650.547 -57.7777) (-368.279 -809.885 -45.0528) (301.271 -545.06 38.2997));
    }
}


// ************************************************************************* //
