/*--------------------------------*- C++ -*----------------------------------*\
| =========                 |                                                 |
| \\      /  F ield         | OpenFOAM: The Open Source CFD Toolbox           |
|  \\    /   O peration     | Version:  2312                                  |
|   \\  /    A nd           | Website:  www.openfoam.com                      |
|    \\/     M anipulation  |                                                 |
\*---------------------------------------------------------------------------*/
FoamFile
{
    version     2.0;
    format      ascii;
    arch        "LSB;label=32;scalar=64";
    class       volScalarField;
    location    "300";
    object      nut;
}
// * * * * * * * * * * * * * * * * * * * * * * * * * * * * * * * * * * * * * //

dimensions      [0 2 -1 0 0 0 0];

internalField   nonuniform List<scalar> 
27
(
1.49625e-05
1.57777e-05
1.63844e-05
2.09543e-05
1.4198e-05
1.47e-05
1.52741e-05
1.21176e-05
1.16469e-05
1.17447e-05
5.33661e-06
9.85558e-07
9.51441e-08
2.05683e-07
8.85341e-07
9.36515e-07
2.31907e-06
7.4297e-06
1.07051e-08
1.36217e-07
1.22419e-07
8.59716e-06
0.000104752
0.000202984
0.000217974
0.000316923
0.000458419
)
;

boundaryField
{
    aggregate
    {
        type            nutUSpaldingWallFunction;
        value           nonuniform List<scalar> 
24
(
0.00151989
0.000159041
0.00114859
0.00112896
0.000156174
0.00149397
0.00117274
0.000162563
0.00155175
0.00150509
0.000157405
0.0011374
0.00120447
0.000124189
0.000909721
0.000979294
0.000134339
0.00129634
0.00105554
0.000145463
0.00139699
0.00141285
0.000147214
0.00106755
)
;
    }
    XY-Zmin
    {
        type            nutUSpaldingWallFunction;
        value           nonuniform List<scalar> 9(0.00205354 0.00207761 0.00196504 0.0016236 0.00186849 0.00216073 0.00156888 0.00160094 0.00192883);
    }
    YZ-Xmin
    {
        type            freestream;
        freestreamValue uniform 1e-05;
        value           uniform 1e-05;
    }
    XZ-Ymin
    {
        type            nutUSpaldingWallFunction;
        value           nonuniform List<scalar> 9(0.0020345 0.00201816 0.00185602 0.0016086 0.00174872 0.00179624 0.00156888 0.00140458 0.00139018);
    }
    XY-Zmax
    {
        type            nutUSpaldingWallFunction;
        value           nonuniform List<scalar> 9(0.00185602 0.00194381 0.00195075 0.00179624 0.00206005 0.00207191 0.00139018 0.00183636 0.00224467);
    }
    XZ-Ymax
    {
        type            nutUSpaldingWallFunction;
        value           nonuniform List<scalar> 9(0.00196504 0.00197721 0.00195075 0.00216073 0.00212239 0.00207191 0.00192883 0.00219469 0.00224467);
    }
    YZ-Xmax
    {
        type            freestream;
        freestreamValue uniform 1e-05;
        value           nonuniform List<scalar> 9(1.07051e-08 1.36217e-07 1.22419e-07 8.59716e-06 0.000104752 0.000202984 0.000217974 0.000316923 0.000458419);
    }
}


// ************************************************************************* //
