/*--------------------------------*- C++ -*----------------------------------*\
| =========                 |                                                 |
| \\      /  F ield         | OpenFOAM: The Open Source CFD Toolbox           |
|  \\    /   O peration     | Version:  2312                                  |
|   \\  /    A nd           | Website:  www.openfoam.com                      |
|    \\/     M anipulation  |                                                 |
\*---------------------------------------------------------------------------*/
FoamFile
{
    version     2.0;
    format      ascii;
    arch        "LSB;label=32;scalar=64";
    class       volScalarField;
    location    "300";
    object      nuTilda;
}
// * * * * * * * * * * * * * * * * * * * * * * * * * * * * * * * * * * * * * //

dimensions      [0 2 -1 0 0 0 0];

internalField   nonuniform List<scalar> 
27
(
5.23309e-05
5.32265e-05
5.38784e-05
5.8471e-05
5.14688e-05
5.20374e-05
5.26759e-05
4.89944e-05
4.8404e-05
4.85278e-05
3.85853e-05
2.46207e-05
1.36082e-05
1.65235e-05
2.39503e-05
2.42991e-05
3.07806e-05
4.23757e-05
7.87027e-06
1.48936e-05
1.44986e-05
4.42091e-05
0.000124282
0.000210746
0.000224838
0.000320373
0.000460104
)
;

boundaryField
{
    aggregate
    {
        type            fixedValue;
        value           uniform 0;
    }
    XY-Zmin
    {
        type            fixedValue;
        value           uniform 0;
    }
    YZ-Xmin
    {
        type            freestream;
        freestreamValue uniform 4e-05;
        value           uniform 4e-05;
    }
    XZ-Ymin
    {
        type            fixedValue;
        value           uniform 0;
    }
    XY-Zmax
    {
        type            fixedValue;
        value           uniform 0;
    }
    XZ-Ymax
    {
        type            fixedValue;
        value           uniform 0;
    }
    YZ-Xmax
    {
        type            freestream;
        freestreamValue uniform 4e-05;
        value           nonuniform List<scalar> 9(7.87027e-06 1.48936e-05 1.44986e-05 4.42091e-05 0.000124282 0.000210746 0.000224838 0.000320373 0.000460104);
    }
}


// ************************************************************************* //
