/*--------------------------------*- C++ -*----------------------------------*\
| =========                 |                                                 |
| \\      /  F ield         | OpenFOAM: The Open Source CFD Toolbox           |
|  \\    /   O peration     | Version:  2312                                  |
|   \\  /    A nd           | Website:  www.openfoam.com                      |
|    \\/     M anipulation  |                                                 |
\*---------------------------------------------------------------------------*/
FoamFile
{
    version     2.0;
    format      ascii;
    arch        "LSB;label=32;scalar=64";
    class       surfaceScalarField;
    location    "300";
    object      phi;
}
// * * * * * * * * * * * * * * * * * * * * * * * * * * * * * * * * * * * * * //

dimensions      [0 3 -1 0 0 0 0];

oriented        oriented;

internalField   nonuniform List<scalar> 
54
(
0.00453433
0.0232244
0.028417
-0.00213541
0.020833
0.020795
0.0218833
0.0273499
0.000301273
0.0320074
0.00301325
0.0114986
0.222099
0.0139857
0.230655
-0.00440585
0.253345
0.248528
0.0271715
0.000542886
0.246172
0.0157267
0.00197147
0.293893
0.0232413
0.310763
0.0044639
0.00239136
0.307676
0.00998539
0.00607363
0.303729
0.0143153
0.209029
-0.0100749
0.194399
-0.00430055
0.207155
0.212063
-0.0151489
-0.00502893
0.22037
-0.0154809
-0.000482658
0.253626
-0.00467312
0.272732
-0.00964791
0.00754138
0.295629
-0.00442665
0.0096137
0.296038
0.00351746
)
;

boundaryField
{
    aggregate
    {
        type            calculated;
        value           uniform 0;
    }
    XY-Zmin
    {
        type            calculated;
        value           uniform 0;
    }
    YZ-Xmin
    {
        type            calculated;
        value           nonuniform List<scalar> 9(-0.257509 -0.257553 -0.257539 -0.257556 -0.257448 -0.257487 -0.257191 -0.257201 -0.257205);
    }
    XZ-Ymin
    {
        type            calculated;
        value           uniform 0;
    }
    XY-Zmax
    {
        type            calculated;
        value           uniform 0;
    }
    XZ-Ymax
    {
        type            calculated;
        value           uniform 0;
    }
    YZ-Xmax
    {
        type            calculated;
        value           nonuniform List<scalar> 9(0.243918 0.231591 0.201895 0.263801 0.28322 0.275602 0.278238 0.296789 0.311242);
    }
}


// ************************************************************************* //
