/*--------------------------------*- C++ -*----------------------------------*\
| =========                 |                                                 |
| \\      /  F ield         | OpenFOAM: The Open Source CFD Toolbox           |
|  \\    /   O peration     | Version:  2312                                  |
|   \\  /    A nd           | Website:  www.openfoam.com                      |
|    \\/     M anipulation  |                                                 |
\*---------------------------------------------------------------------------*/
FoamFile
{
    version     2.0;
    format      ascii;
    arch        "LSB;label=32;scalar=64";
    class       volSymmTensorField;
    location    "300";
    object      turbulenceProperties:devReff;
}
// * * * * * * * * * * * * * * * * * * * * * * * * * * * * * * * * * * * * * //

dimensions      [0 2 -2 0 0 0 0];

internalField   nonuniform List<symmTensor> 
27
(
(0.0026932 -0.00613549 -0.00633341 -0.00193906 -0.00076134 -0.00075414)
(0.00252668 -0.005994 -0.0021278 -0.00174045 -0.000418269 -0.000786225)
(0.000374997 -0.00675224 0.0071659 -0.00116619 0.000500561 0.00079119)
(0.00181555 -0.00204864 -0.00779082 -0.00105305 -0.000835127 -0.000762505)
(0.00164042 -0.00155432 -0.00201583 -0.000858642 3.55989e-05 -0.000781773)
(-0.00101905 0.000286608 0.00688092 0.000285168 0.000791116 0.000733877)
(-0.00171041 0.0077848 -0.0069736 0.00173761 -0.000853464 -2.72003e-05)
(-0.00141516 0.00660636 -5.31202e-05 0.0014667 0.000230899 -5.15384e-05)
(-0.00106735 0.00621733 0.0058899 0.000953627 0.000769165 0.000113728)
(-0.000185447 -0.00441831 -0.00430567 -0.000210944 -0.000593904 0.000396392)
(-0.000102527 -0.00325241 -0.00122687 -0.000173654 -0.000177773 0.000276182)
(0.000640257 -0.0028684 0.00286544 -0.000640382 0.000213392 1.24629e-07)
(-0.000389632 -0.00107321 -0.00231764 0.000207519 -9.20886e-05 0.000182114)
(-0.000477138 -0.00095749 -0.000946982 0.000262029 -1.48836e-05 0.000215109)
(4.15058e-05 -0.000124775 0.00320485 -4.43982e-05 0.000152205 2.8924e-06)
(-7.7232e-05 0.00348681 -0.00335574 0.000269581 -0.000247077 -0.000192349)
(-0.000460963 0.00387134 4.47328e-05 0.000474047 4.50404e-05 -1.30838e-05)
(-0.000832738 0.00531222 0.00512691 0.000632038 0.000502451 0.0002007)
(9.50316e-05 -0.00199767 -0.00192358 -6.06806e-05 -5.98632e-05 -3.4351e-05)
(0.000445471 -0.00198927 0.000245089 -0.000184093 5.28893e-05 -0.000261378)
(0.000496658 -0.00212954 0.00190559 -0.000208851 0.000115343 -0.000287807)
(0.000637381 -0.000217533 -0.00415635 -0.000135497 0.000269352 -0.000501884)
(0.00394306 -0.00579211 -0.00175672 -0.00113061 -0.00159828 -0.00281245)
(0.00476059 -0.0129548 0.05265 -0.000579407 -0.00397989 -0.00418119)
(0.00943486 0.0591375 -0.0668315 -0.00704931 0.00292911 -0.00238555)
(0.000577066 0.094323 -0.00966877 -0.00334717 -0.00186225 0.00277011)
(-0.011206 0.139873 0.14847 -0.000227436 0.000162089 0.0114334)
)
;

boundaryField
{
    aggregate
    {
        type            calculated;
        value           nonuniform List<symmTensor> 
24
(
(0.224468 -1.21355 1.06246 -0.271298 0.127108 0.0468301)
(2.05773 0.152099 -0.0314 -1.03288 -0.00515563 -1.02485)
(-0.0204475 1.39559 0.676197 0.185958 0.0992501 -0.16551)
(0.0904475 0.511983 -1.4395 0.0830302 -0.141401 -0.173478)
(1.98174 0.130074 0.0593183 -0.993947 -0.00269634 -0.987796)
(-0.00546867 1.2609 0.805764 0.11274 0.160817 -0.107272)
(0.139344 -0.990725 1.28272 -0.176102 0.147529 0.0367582)
(2.15458 0.167471 -0.0506408 -1.0781 -0.00465565 -1.07648)
(0.174681 -1.2316 -1.04445 -0.227523 -0.10933 0.0528419)
(0.0675499 0.639247 -1.402 0.0816077 -0.126677 -0.149158)
(2.01504 0.150102 0.0387494 -1.00779 0.000246279 -1.00725)
(0.182631 -1.26875 -0.785552 -0.200917 -0.117686 0.0182863)
(0.0170128 -0.746988 0.625927 -0.138871 0.0797097 0.121858)
(-1.22206 -0.169415 -0.0612583 0.609155 -0.00366505 0.612903)
(-0.119622 0.83173 0.405979 0.174574 0.0948125 -0.0549517)
(-0.0161892 0.350024 -1.04877 0.0926526 -0.0852481 -0.0764634)
(-1.44764 -0.142246 -0.0597211 0.721705 -0.00167309 0.725939)
(-0.10306 0.92995 0.592364 0.119563 0.0978967 -0.0165035)
(-0.0011291 -0.828773 0.994645 -0.03481 0.0807535 0.0359391)
(-1.7156 -0.104281 -0.0204295 0.857993 -0.00141815 0.857602)
(-0.0135651 -0.98868 -0.807462 -0.0636834 -0.0416902 0.0772485)
(-0.0829833 0.506514 -1.24056 0.0791549 -0.0504447 0.00382833)
(-1.75929 -0.0767478 -0.0316858 0.880009 -0.000229275 0.879286)
(-0.0159514 -1.10511 -0.67966 -0.0280836 -0.0389509 0.0440349)
)
;
    }
    XY-Zmin
    {
        type            calculated;
        value           nonuniform List<symmTensor> 9((0.219661 -0.507194 -1.37771 -0.163268 -0.174057 -0.0563936) (0.113169 -0.138163 -1.4333 -0.0802946 -0.159633 -0.0328743) (-0.13491 0.608341 -1.08514 0.134534 -0.128537 0.00037623) (-0.00224335 -0.331931 -0.812988 -0.00415886 -0.128798 0.00640221) (-0.0816833 -0.199701 -1.14266 0.0294336 -0.0684533 0.0522497) (-0.0161449 0.692078 -1.34457 0.0526923 -0.0805069 -0.0365473) (0.0164521 -0.315072 -0.656823 -0.00810672 -0.027961 -0.00834537) (0.0558025 -0.0188433 -0.696016 -0.0111464 0.049896 -0.044656) (0.0791256 0.502943 -1.04732 -0.0610663 0.0644808 -0.0180593));
    }
    YZ-Xmin
    {
        type            calculated;
        value           nonuniform List<symmTensor> 9((-0.00246357 -0.0052298 -0.00507284 0.000757103 -0.000609987 0.00170646) (-0.00210739 -0.00490381 -0.00205488 0.000683522 -0.00032452 0.00142387) (0.00019076 -0.00495809 0.00507513 -0.000837248 0.000379437 0.000646488) (-0.00327613 -0.00167001 -0.00501628 0.0015442 -0.000539587 0.00173193) (-0.00251742 -0.00159645 -0.00199567 0.00122694 2.9423e-05 0.00129048) (-0.00094089 0.00055794 0.0053186 0.000288781 0.000640581 0.000652109) (-0.0013416 0.00609814 -0.00550511 0.00136907 -0.000675367 -2.74689e-05) (-0.00143617 0.00592914 -5.37662e-05 0.00140452 0.000208792 3.1649e-05) (-0.00111499 0.00593771 0.00543857 0.000945495 0.000710646 0.000169496));
    }
    XZ-Ymin
    {
        type            calculated;
        value           nonuniform List<symmTensor> 9((0.294825 -1.35176 -0.518725 -0.307302 -0.0712279 0.0124771) (0.262599 -1.2864 -0.167413 -0.264543 -0.0754968 0.00194393) (0.0677668 -0.94089 0.506803 -0.164969 0.0087666 0.0972018) (0.0461023 -0.806055 -0.320498 -0.135514 -0.071423 0.0894122) (0.0351004 -0.94996 -0.140691 -0.113629 -0.0515759 0.0785288) (0.147225 -0.875908 0.471135 -0.189199 0.0318089 0.0419742) (0.0388702 -0.643996 -0.303385 -0.0573344 -0.00639902 0.0184641) (0.0776237 -0.506757 0.0342039 -0.0566015 0.0206825 -0.0210222) (0.0884362 -0.498344 0.263589 -0.0683616 0.0275465 -0.0200746));
    }
    XY-Zmax
    {
        type            calculated;
        value           nonuniform List<symmTensor> 9((0.0104203 -0.477547 0.939187 -0.0985789 0.0811376 0.0881586) (-0.0971367 0.0226712 1.04072 0.00602876 0.0821811 0.091108) (-0.0981442 0.563157 1.06516 0.0849136 0.106672 0.0132306) (0.103621 -0.471622 0.907634 -0.106941 0.0875438 0.0033202) (-0.0114141 -0.0237283 1.22057 -0.0277503 0.0603924 0.0391645) (-0.103846 0.634525 1.21551 0.0711155 0.0925521 0.032731) (0.0727239 -0.294568 0.516563 -0.0248654 0.0373683 -0.0478584) (0.0381913 -0.112306 0.950132 -0.0081014 -0.0366458 -0.0300899) (-0.0663272 0.67326 1.45468 -0.0134835 0.00961426 0.0798107));
    }
    XZ-Ymax
    {
        type            calculated;
        value           nonuniform List<symmTensor> 9((-0.173543 1.10597 -0.54495 0.215552 -0.0654688 -0.0420092) (-0.172444 1.11156 -0.00477271 0.22237 0.0151771 -0.0499263) (-0.131754 1.09913 0.533499 0.156527 0.0618721 -0.0247732) (-0.0409553 1.39421 -0.666064 0.10476 -0.0414098 -0.0638043) (-0.1242 1.33238 0.0077431 0.170873 0.0190066 -0.0466732) (-0.128483 1.24815 0.612391 0.133525 0.0605902 -0.00504231) (0.101086 1.07848 -0.568378 -0.101643 0.0339047 0.000557497) (0.00924931 1.42541 -0.0652038 -0.033288 0.0250373 0.0240386) (-0.0585832 1.48141 0.714638 0.0081948 0.0302997 0.0503884));
    }
    YZ-Xmax
    {
        type            calculated;
        value           nonuniform List<symmTensor> 9((-5.59202e-05 -0.0021335 -0.00197785 1.47952e-05 -5.98632e-05 4.11249e-05) (-5.60731e-05 -0.00209844 0.000145521 6.66792e-05 5.28893e-05 -1.06061e-05) (5.76205e-05 -0.00221146 0.00185385 1.06676e-05 0.000115343 -6.82881e-05) (-0.000211316 -0.000560607 -0.00413639 0.000288852 0.000269352 -7.75357e-05) (-0.000520199 -0.00758167 -0.00225806 0.00110102 -0.00159828 -0.00058082) (-0.000515999 -0.0152024 0.0515455 0.00205889 -0.00397989 -0.00154289) (0.00348453 0.0551624 -0.0666572 -0.00407414 0.00292911 0.000589611) (0.00354077 0.0888932 -0.00882586 -0.00482903 -0.00186225 0.00128825) (-0.00174237 0.135448 0.149668 -0.00495925 0.000162089 0.00670162));
    }
}


// ************************************************************************* //
