/*--------------------------------*- C++ -*----------------------------------*\
| =========                 |                                                 |
| \\      /  F ield         | OpenFOAM: The Open Source CFD Toolbox           |
|  \\    /   O peration     | Version:  2312                                  |
|   \\  /    A nd           | Website:  www.openfoam.com                      |
|    \\/     M anipulation  |                                                 |
\*---------------------------------------------------------------------------*/
FoamFile
{
    version     2.0;
    format      ascii;
    arch        "LSB;label=32;scalar=64";
    class       volScalarField;
    location    "300";
    object      turbulenceProperties:nuEff;
}
// * * * * * * * * * * * * * * * * * * * * * * * * * * * * * * * * * * * * * //

dimensions      [0 2 -1 0 0 0 0];

internalField   nonuniform List<scalar> 
27
(
2.49625e-05
2.57777e-05
2.63844e-05
3.09543e-05
2.4198e-05
2.47e-05
2.52741e-05
2.21176e-05
2.16469e-05
2.17447e-05
1.53366e-05
1.09856e-05
1.00951e-05
1.02057e-05
1.08853e-05
1.09365e-05
1.23191e-05
1.74297e-05
1.00107e-05
1.01362e-05
1.01224e-05
1.85972e-05
0.000114752
0.000212984
0.000227974
0.000326923
0.000468419
)
;

boundaryField
{
    aggregate
    {
        type            calculated;
        value           nonuniform List<scalar> 
24
(
0.00152989
0.000169041
0.00115859
0.00113896
0.000166174
0.00150397
0.00118274
0.000172563
0.00156175
0.00151509
0.000167405
0.0011474
0.00121447
0.000134189
0.000919721
0.000989294
0.000144339
0.00130634
0.00106554
0.000155463
0.00140699
0.00142285
0.000157214
0.00107755
)
;
    }
    XY-Zmin
    {
        type            calculated;
        value           nonuniform List<scalar> 9(0.00206354 0.00208761 0.00197504 0.0016336 0.00187849 0.00217073 0.00157888 0.00161094 0.00193883);
    }
    YZ-Xmin
    {
        type            calculated;
        value           uniform 2e-05;
    }
    XZ-Ymin
    {
        type            calculated;
        value           nonuniform List<scalar> 9(0.0020445 0.00202816 0.00186602 0.0016186 0.00175872 0.00180624 0.00157888 0.00141458 0.00140018);
    }
    XY-Zmax
    {
        type            calculated;
        value           nonuniform List<scalar> 9(0.00186602 0.00195381 0.00196075 0.00180624 0.00207005 0.00208191 0.00140018 0.00184636 0.00225467);
    }
    XZ-Ymax
    {
        type            calculated;
        value           nonuniform List<scalar> 9(0.00197504 0.00198721 0.00196075 0.00217073 0.00213239 0.00208191 0.00193883 0.00220469 0.00225467);
    }
    YZ-Xmax
    {
        type            calculated;
        value           nonuniform List<scalar> 9(1.00107e-05 1.01362e-05 1.01224e-05 1.85972e-05 0.000114752 0.000212984 0.000227974 0.000326923 0.000468419);
    }
}


// ************************************************************************* //
