/*--------------------------------*- C++ -*----------------------------------*\
| =========                 |                                                 |
| \\      /  F ield         | OpenFOAM: The Open Source CFD Toolbox           |
|  \\    /   O peration     | Version:  2312                                  |
|   \\  /    A nd           | Website:  www.openfoam.com                      |
|    \\/     M anipulation  |                                                 |
\*---------------------------------------------------------------------------*/
FoamFile
{
    version     2.0;
    format      ascii;
    arch        "LSB;label=32;scalar=64";
    class       volSymmTensorField;
    location    "300";
    object      turbulenceProperties:R;
}
// * * * * * * * * * * * * * * * * * * * * * * * * * * * * * * * * * * * * * //

dimensions      [0 2 -2 0 0 0 0];

internalField   nonuniform List<symmTensor> 
27
(
(0.0298075 -0.0036776 -0.00379624 0.0270309 -0.000456347 0.0277411)
(0.0222488 -0.00366874 -0.00130236 0.019637 -0.000256009 0.020221)
(0.0304822 -0.00419307 0.00444995 0.0295252 0.000310843 0.0307407)
(0.0259076 -0.00138681 -0.00527394 0.0239657 -0.000565333 0.0241624)
(0.0100264 -0.000911986 -0.00118277 0.0085601 2.08874e-05 0.0086052)
(0.0208822 0.000170572 0.00409512 0.0216584 0.000470826 0.0219255)
(0.0315441 0.00470465 -0.00421441 0.0336279 -0.000515781 0.0325613)
(0.0201314 0.00361944 -2.91031e-05 0.0217103 0.000126503 0.0208785)
(0.0261865 0.00334518 0.003169 0.0272739 0.000413842 0.026822)
(0.019291 -0.00238641 -0.00232557 0.0192772 -0.000320779 0.0196053)
(0.0101115 -0.00113173 -0.000426909 0.0100868 -6.1859e-05 0.0102433)
(0.00706958 -0.000257335 0.00025707 0.00695469 1.91442e-05 0.00701215)
(0.00147856 -1.01147e-05 -2.18432e-05 0.00148419 -8.67911e-07 0.00148395)
(0.00122539 -1.9297e-05 -1.90852e-05 0.00124029 -2.99961e-07 0.00123934)
(0.00524166 -1.01484e-05 0.000260662 0.00523467 1.23794e-05 0.00523852)
(0.00808902 0.000298582 -0.000287359 0.00811872 -2.11577e-05 0.00807917)
(0.00905934 0.000728782 8.42096e-06 0.00923536 8.47886e-06 0.00914366)
(0.0221377 0.00226442 0.00218543 0.0227621 0.000214178 0.0225782)
(0.000538187 -2.13625e-06 -2.05701e-06 0.00053802 -6.40158e-08 0.000538048)
(0.00142283 -2.67331e-05 3.29366e-06 0.00141437 7.1076e-07 0.00141334)
(0.00188458 -2.57543e-05 2.30458e-05 0.00187605 1.39494e-06 0.00187509)
(0.0133887 -0.000100562 -0.00192141 0.0130314 0.000124517 0.012862)
(0.021529 -0.00528736 -0.00160363 0.0168974 -0.001459 0.0153622)
(0.123293 -0.0123466 0.050178 0.118204 -0.00379303 0.114772)
(0.203575 0.0565435 -0.0639 0.187814 0.00280063 0.192273)
(0.206836 0.0914378 -0.00937302 0.203032 -0.00180529 0.208962)
(0.434478 0.136887 0.1453 0.445222 0.000158629 0.456634)
)
;

boundaryField
{
    aggregate
    {
        type            calculated;
        value           nonuniform List<symmTensor> 
24
(
(0.223 -1.20562 1.05552 -0.269524 0.126277 0.046524)
(1.936 0.143102 -0.0295424 -0.971773 -0.00485064 -0.964224)
(-0.0202711 1.38354 0.67036 0.184353 0.0983934 -0.164082)
(0.0896534 0.507488 -1.42686 0.0823012 -0.140159 -0.171955)
(1.86249 0.122247 0.0557487 -0.934134 -0.00253408 -0.928353)
(-0.0054323 1.25252 0.800407 0.111991 0.159748 -0.106558)
(0.138166 -0.982349 1.27188 -0.174613 0.146281 0.0364474)
(2.02972 0.157766 -0.0477061 -1.01562 -0.00438585 -1.0141)
(0.173563 -1.22372 -1.03776 -0.226067 -0.10863 0.0525036)
(0.0671041 0.635028 -1.39274 0.081069 -0.125841 -0.148173)
(1.89467 0.141136 0.0364347 -0.947586 0.000231567 -0.947086)
(0.181039 -1.25769 -0.778706 -0.199166 -0.11666 0.018127)
(0.0168727 -0.740837 0.620773 -0.137727 0.0790533 0.120855)
(-1.13099 -0.15679 -0.0566932 0.563759 -0.00339192 0.567228)
(-0.118322 0.822687 0.401565 0.172676 0.0937816 -0.0543542)
(-0.0160255 0.346486 -1.03817 0.091716 -0.0843864 -0.0756905)
(-1.34735 -0.132391 -0.0555835 0.671704 -0.00155718 0.675644)
(-0.102271 0.922831 0.587829 0.118648 0.0971473 -0.0163771)
(-0.0011185 -0.820995 0.98531 -0.0344833 0.0799956 0.0356018)
(-1.60524 -0.0975731 -0.0191154 0.802804 -0.00132693 0.802438)
(-0.0134686 -0.981653 -0.801723 -0.0632308 -0.0413939 0.0766994)
(-0.0824 0.502954 -1.23184 0.0785986 -0.0500902 0.00380142)
(-1.64739 -0.0718661 -0.0296703 0.824033 -0.000214692 0.823356)
(-0.0158033 -1.09485 -0.673353 -0.0278229 -0.0385895 0.0436263)
)
;
    }
    XY-Zmin
    {
        type            calculated;
        value           nonuniform List<symmTensor> 9((0.218597 -0.504736 -1.37103 -0.162476 -0.173213 -0.0561203) (0.112627 -0.137502 -1.42644 -0.07991 -0.158869 -0.0327168) (-0.134227 0.605261 -1.07964 0.133853 -0.127886 0.000374325) (-0.00222962 -0.329899 -0.808011 -0.0041334 -0.128009 0.00636302) (-0.0812484 -0.198638 -1.13657 0.0292769 -0.0680889 0.0519715) (-0.0160705 0.68889 -1.33838 0.0524495 -0.0801361 -0.036379) (0.0163479 -0.313076 -0.652663 -0.00805538 -0.0277839 -0.00829251) (0.0554561 -0.0187264 -0.691696 -0.0110772 0.0495863 -0.0443788) (0.0787175 0.500349 -1.04192 -0.0607513 0.0641482 -0.0179662));
    }
    YZ-Xmin
    {
        type            calculated;
        value           nonuniform List<symmTensor> 9((0.0177451 -0.0026149 -0.00253642 0.0193554 -0.000304994 0.0198301) (0.0133015 -0.0024519 -0.00102744 0.0146969 -0.00016226 0.0150671) (0.0170347 -0.00247905 0.00253756 0.0165207 0.000189718 0.0172625) (0.0136521 -0.000835005 -0.00250814 0.0160622 -0.000269794 0.0161561) (0.00803774 -0.000798227 -0.000997833 0.00990992 1.47115e-05 0.00994169) (0.0124621 0.00027897 0.0026593 0.0130769 0.00032029 0.0132586) (0.0191304 0.00304907 -0.00275256 0.0204857 -0.000337684 0.0197875) (0.0137436 0.00296457 -2.68831e-05 0.0151639 0.000104396 0.0144775) (0.018763 0.00296886 0.00271929 0.0197933 0.000355323 0.0194053));
    }
    XZ-Ymin
    {
        type            calculated;
        value           nonuniform List<symmTensor> 9((0.293383 -1.34515 -0.516188 -0.305799 -0.0708796 0.0124161) (0.261304 -1.28005 -0.166587 -0.263239 -0.0751246 0.00193434) (0.0674037 -0.935847 0.504087 -0.164085 0.00871962 0.0966809) (0.0458174 -0.801075 -0.318518 -0.134677 -0.0709817 0.0888598) (0.0349009 -0.944559 -0.139891 -0.112983 -0.0512827 0.0780823) (0.14641 -0.871058 0.468527 -0.188152 0.0316328 0.0417419) (0.0386241 -0.639917 -0.301464 -0.0569712 -0.00635849 0.0183472) (0.077075 -0.503175 0.0339621 -0.0562014 0.0205363 -0.0208736) (0.0878046 -0.494785 0.261707 -0.0678734 0.0273497 -0.0199312));
    }
    XY-Zmax
    {
        type            calculated;
        value           nonuniform List<symmTensor> 9((0.0103644 -0.474988 0.934154 -0.0980506 0.0807027 0.0876862) (-0.0966396 0.0225551 1.03539 0.0059979 0.0817605 0.0906417) (-0.0976437 0.560285 1.05973 0.0844805 0.106128 0.0131632) (0.103047 -0.469011 0.902609 -0.106349 0.0870592 0.00330181) (-0.011359 -0.0236137 1.21467 -0.0276163 0.0601007 0.0389753) (-0.103348 0.631477 1.20967 0.0707739 0.0921075 0.0325738) (0.0722045 -0.292464 0.512874 -0.0246878 0.0371014 -0.0475166) (0.0379844 -0.111698 0.944986 -0.00805752 -0.0364473 -0.0299269) (-0.066033 0.670274 1.44823 -0.0134237 0.00957162 0.0794567));
    }
    XZ-Ymax
    {
        type            calculated;
        value           nonuniform List<symmTensor> 9((-0.172665 1.10037 -0.542191 0.214461 -0.0651373 -0.0417965) (-0.171576 1.10597 -0.00474869 0.221251 0.0151007 -0.0496751) (-0.131082 1.09352 0.530778 0.155729 0.0615565 -0.0246468) (-0.0407666 1.38779 -0.662996 0.104277 -0.041219 -0.0635104) (-0.123617 1.32613 0.00770679 0.170072 0.0189175 -0.0464543) (-0.127865 1.24216 0.609449 0.132884 0.0602992 -0.00501809) (0.100564 1.07291 -0.565446 -0.101119 0.0337298 0.000554622) (0.00920736 1.41894 -0.0649081 -0.033137 0.0249237 0.0239296) (-0.0583234 1.47484 0.711469 0.00815846 0.0301654 0.050165));
    }
    YZ-Xmax
    {
        type            calculated;
        value           nonuniform List<symmTensor> 9((0.000563449 -2.2815e-06 -2.11505e-06 0.000563524 -6.40158e-08 0.000563552) (0.00143726 -2.82002e-05 1.95561e-06 0.00143891 7.1076e-07 0.00143787) (0.00187376 -2.6745e-05 2.24201e-05 0.00187319 1.39494e-06 0.00187224) (0.012749 -0.000259159 -0.00191219 0.0129803 0.000124517 0.0128109) (0.0180402 -0.00692097 -0.00206128 0.0195201 -0.001459 0.0179848) (0.116604 -0.0144886 0.0491253 0.119058 -0.00379303 0.115626) (0.191517 0.0527427 -0.0637333 0.18429 0.00280063 0.188749) (0.19773 0.0861741 -0.00855589 0.189617 -0.00180529 0.195547) (0.438593 0.132556 0.146473 0.435445 0.000158629 0.446857));
    }
}


// ************************************************************************* //
