/*--------------------------------*- C++ -*----------------------------------*\
| =========                 |                                                 |
| \\      /  F ield         | OpenFOAM: The Open Source CFD Toolbox           |
|  \\    /   O peration     | Version:  2312                                  |
|   \\  /    A nd           | Website:  www.openfoam.com                      |
|    \\/     M anipulation  |                                                 |
\*---------------------------------------------------------------------------*/
FoamFile
{
    version     2.0;
    format      ascii;
    arch        "LSB;label=32;scalar=64";
    class       volScalarField;
    location    "300";
    object      turbulenceProperties:L;
}
// * * * * * * * * * * * * * * * * * * * * * * * * * * * * * * * * * * * * * //

dimensions      [0 1 0 0 0 0 0];

internalField   nonuniform List<scalar> 
27
(
0.0011173
0.00131311
0.00109208
0.001259
0.00195768
0.0012769
0.0010422
0.0012669
0.00111558
0.00131155
0.00174775
0.00227836
0.0063456
0.00636045
0.00266057
0.0021297
0.00187966
0.00118228
0.0137324
0.00622399
0.00547264
0.00155999
0.00277737
0.0018236
0.00151993
0.0021031
0.00205534
)
;

boundaryField
{
    aggregate
    {
        type            calculated;
        value           uniform 0;
    }
    XY-Zmin
    {
        type            calculated;
        value           uniform 0;
    }
    YZ-Xmin
    {
        type            calculated;
        value           nonuniform List<scalar> 9(0.00138922 0.00159728 0.0014704 0.00154767 0.00198484 0.00168284 0.00136 0.00159138 0.00137681);
    }
    XZ-Ymin
    {
        type            calculated;
        value           uniform 0;
    }
    XY-Zmax
    {
        type            calculated;
        value           uniform 0;
    }
    XZ-Ymax
    {
        type            calculated;
        value           uniform 0;
    }
    YZ-Xmax
    {
        type            calculated;
        value           nonuniform List<scalar> 9(0.0134191 0.00617802 0.00548069 0.00157493 0.0027331 0.00183648 0.00154544 0.00216696 0.00206732);
    }
}


// ************************************************************************* //
