/*--------------------------------*- C++ -*----------------------------------*\
| =========                 |                                                 |
| \\      /  F ield         | OpenFOAM: The Open Source CFD Toolbox           |
|  \\    /   O peration     | Version:  2312                                  |
|   \\  /    A nd           | Website:  www.openfoam.com                      |
|    \\/     M anipulation  |                                                 |
\*---------------------------------------------------------------------------*/
FoamFile
{
    version     2.0;
    format      ascii;
    arch        "LSB;label=32;scalar=64";
    class       volVectorField;
    location    "300";
    object      U;
}
// * * * * * * * * * * * * * * * * * * * * * * * * * * * * * * * * * * * * * //

dimensions      [0 1 -1 0 0 0 0];

internalField   nonuniform List<vector> 
27
(
(30.9491 3.92271 0.21501)
(30.3193 3.50045 1.45595)
(25.6166 2.80998 1.34959)
(31.7883 3.58293 -0.135072)
(30.632 3.33737 1.04911)
(27.1887 1.79892 1.19401)
(27.4432 3.21787 -0.00516236)
(27.6284 3.39111 0.174519)
(27.2862 2.38847 0.132873)
(23.2524 3.57903 0.876602)
(25.5801 2.60066 1.10384)
(24.6498 2.8004 0.467746)
(28.1121 1.84439 -0.335735)
(28.5314 1.26659 0.346882)
(29.184 1.43308 1.04039)
(30.9024 1.79587 0.117277)
(30.1932 2.48852 0.46454)
(29.3774 1.87137 0.365185)
(21.0713 0.95989 -0.170772)
(18.4432 0.533773 -0.790444)
(18.1926 1.19749 -0.550863)
(21.5484 -1.65809 -0.126907)
(22.9327 -1.67633 -0.490723)
(25.4705 -0.636187 0.00315864)
(26.9725 -1.62787 0.266943)
(31.512 -0.801791 0.973272)
(32.3857 -0.00605557 0.873895)
)
;

boundaryField
{
    aggregate
    {
        type            noSlip;
    }
    XY-Zmin
    {
        type            noSlip;
    }
    YZ-Xmin
    {
        type            freestreamVelocity;
        freestreamValue uniform (25.75 3.62 0);
        value           nonuniform List<vector> 9((25.7753 3.62147 0.00104566) (25.7722 3.61942 0.0070745) (25.7494 3.61606 0.00655718) (25.7793 3.61982 -0.00065606) (25.7737 3.61863 0.00509478) (25.757 3.61118 0.00578231) (25.7582 3.61805 -2.50917e-05) (25.7591 3.61889 0.000848648) (25.7575 3.61403 0.000644541));
    }
    XZ-Ymin
    {
        type            noSlip;
    }
    XY-Zmax
    {
        type            noSlip;
    }
    XZ-Ymax
    {
        type            noSlip;
    }
    YZ-Xmax
    {
        type            freestreamVelocity;
        freestreamValue uniform (25.75 3.62 0);
        value           nonuniform List<vector> 9((21.0733 0.961055 -0.170697) (18.4603 0.541002 -0.788592) (18.2169 1.20529 -0.549087) (21.5738 -1.62614 -0.126139) (22.952 -1.64003 -0.487359) (25.4718 -0.615559 0.00314333) (26.965 -1.59606 0.265325) (31.4915 -0.786049 0.969807) (32.3745 2.52185e-05 0.87243));
    }
}


// ************************************************************************* //
