/*--------------------------------*- C++ -*----------------------------------*\
| =========                 |                                                 |
| \\      /  F ield         | OpenFOAM: The Open Source CFD Toolbox           |
|  \\    /   O peration     | Version:  2312                                  |
|   \\  /    A nd           | Website:  www.openfoam.com                      |
|    \\/     M anipulation  |                                                 |
\*---------------------------------------------------------------------------*/
FoamFile
{
    version     2.0;
    format      ascii;
    arch        "LSB;label=32;scalar=64";
    class       volScalarField;
    location    "500";
    object      div(phi);
}
// * * * * * * * * * * * * * * * * * * * * * * * * * * * * * * * * * * * * * //

dimensions      [0 0 -1 0 0 0 0];

internalField   nonuniform List<scalar> 
10720
(
1.65385e-06
-1.49314e-06
7.60087e-07
-9.35232e-07
2.94334e-07
-2.59175e-08
3.46629e-07
1.67773e-07
-7.66552e-08
-2.54921e-07
-2.09092e-07
-2.16386e-07
-1.15752e-07
-1.02505e-07
-1.3287e-08
-3.5855e-09
1.23563e-07
1.56733e-07
3.99427e-07
2.91977e-07
7.70927e-07
8.69263e-07
5.01709e-06
5.09721e-08
-1.74349e-05
1.51851e-05
3.06215e-05
-1.70613e-05
-2.07626e-05
2.0775e-05
-3.85954e-06
1.23552e-05
-2.56862e-06
-1.43734e-05
2.0181e-05
1.6743e-05
2.25371e-06
3.42258e-05
0.00039224
-1.40331e-06
1.00588e-06
-5.37542e-07
1.04894e-07
-2.13686e-07
-2.19046e-07
-5.65162e-08
1.24767e-07
4.29937e-08
1.37808e-07
8.92219e-08
1.85425e-07
1.47162e-07
2.02522e-07
1.54802e-07
1.92364e-07
1.33818e-07
1.79684e-07
7.67953e-08
1.32522e-07
-8.44482e-08
-6.14879e-08
-5.5788e-07
-6.9262e-07
-6.81458e-07
-6.61411e-07
-4.87781e-07
-4.78132e-07
-1.03011e-07
-7.652e-07
-6.12047e-07
-1.36204e-06
-2.09616e-07
2.60004e-06
-3.54886e-06
-8.65064e-06
7.96462e-06
-7.49011e-07
-7.45111e-06
7.42536e-07
-4.69757e-07
5.29547e-07
-7.55918e-07
5.12167e-07
6.11684e-08
4.11601e-07
9.1793e-08
-1.65251e-07
-2.58587e-07
-2.09218e-07
-2.08932e-07
-1.2845e-07
-1.70464e-07
-1.20346e-07
-1.88725e-07
-1.205e-07
-1.71538e-07
-6.30473e-08
-1.50854e-07
-3.61929e-08
4.99629e-08
1.32994e-06
1.30175e-06
-1.69358e-06
1.30869e-06
7.44062e-06
-2.64364e-06
-5.57274e-06
8.92391e-06
1.45139e-07
7.68124e-06
1.93794e-06
-5.18732e-06
1.21606e-05
1.09995e-05
1.40957e-06
3.15785e-05
0.000229445
-7.26515e-08
5.13696e-07
-3.06767e-07
3.69785e-08
-3.19392e-07
-5.21798e-08
3.1668e-08
5.9834e-08
4.1785e-08
8.05376e-08
8.03955e-08
1.49538e-07
1.32122e-07
1.86153e-07
1.48799e-07
1.9217e-07
1.41064e-07
1.78604e-07
9.33484e-08
1.10335e-07
-6.52886e-08
-1.20905e-07
-5.40322e-07
-6.97732e-07
-8.04882e-07
-7.24361e-07
-6.18731e-07
-4.95078e-07
-2.79909e-07
-8.64993e-07
-7.58747e-07
-1.42476e-06
-9.9144e-07
1.37995e-06
-2.28028e-06
-6.4854e-06
7.22615e-06
-3.23992e-06
-4.93909e-06
-1.6227e-06
1.06884e-06
-1.08871e-06
7.42718e-07
-1.37104e-07
5.64099e-07
2.69399e-07
-2.22762e-08
-2.46147e-07
-2.5321e-07
-2.73413e-07
-1.71515e-07
-1.56295e-07
-5.51266e-08
-3.7661e-08
5.2576e-08
1.14568e-07
2.25681e-07
3.53832e-07
4.14552e-07
5.2862e-07
6.12819e-07
1.89391e-06
3.31203e-07
-6.28113e-06
7.19039e-06
1.94485e-05
-1.00953e-05
-1.42095e-05
1.27774e-05
-3.21846e-06
6.92605e-06
-3.17916e-06
-9.55256e-06
1.10944e-05
8.05409e-06
1.67697e-06
7.89008e-06
0.000116455
1.10684e-06
-5.98734e-07
2.37754e-07
-3.40748e-07
-5.53445e-08
-6.67166e-08
8.56589e-08
3.55572e-08
9.37976e-08
5.09809e-08
1.39852e-07
1.10756e-07
1.76182e-07
1.39578e-07
1.738e-07
1.37446e-07
1.51461e-07
1.21203e-07
1.10662e-07
7.22558e-08
4.08332e-09
-8.40289e-08
-3.22043e-07
-4.72524e-07
-4.84883e-07
-4.74157e-07
-4.32397e-07
-3.56034e-07
-9.92597e-08
-5.2372e-07
-4.44521e-07
-1.30592e-06
1.95618e-07
3.27487e-06
-3.78222e-06
-9.37634e-06
8.79252e-06
-7.83806e-07
-5.27126e-06
9.50741e-07
-5.98984e-07
4.02938e-07
-7.06272e-08
5.39465e-07
4.57101e-07
1.51326e-07
-1.27684e-07
-2.67084e-07
-2.68506e-07
-2.5848e-07
-1.70887e-07
-1.84635e-07
-1.17357e-07
-1.87965e-07
-1.31503e-07
-2.10288e-07
-1.22019e-07
-1.67879e-07
-1.03513e-07
-1.99447e-07
3.71536e-08
7.98515e-07
7.27442e-07
-1.29376e-06
6.26726e-07
4.38511e-06
-1.09614e-06
-2.88158e-06
6.29315e-06
6.05127e-07
5.69653e-06
2.09671e-06
-3.24269e-06
9.17594e-06
7.88174e-06
8.52355e-07
2.16621e-05
0.000119908
-4.36558e-07
9.22043e-08
-2.73894e-07
-1.52132e-07
-1.12187e-07
1.17193e-07
6.48145e-08
6.85424e-08
5.47226e-08
6.84749e-08
1.06201e-07
1.08073e-07
1.5291e-07
1.2544e-07
1.67566e-07
1.25119e-07
1.6353e-07
1.09376e-07
1.27677e-07
4.59162e-08
4.49627e-09
-1.50263e-07
-3.45836e-07
-5.59863e-07
-6.38125e-07
-6.80911e-07
-5.96202e-07
-5.15771e-07
-3.38647e-07
-7.25651e-07
-7.43076e-07
-1.46874e-06
-1.06433e-06
1.55383e-06
-2.39121e-06
-7.26214e-06
8.57693e-06
-4.59391e-06
-4.27278e-06
5.53581e-07
8.20906e-08
1.07225e-07
4.31183e-07
5.03288e-07
3.58102e-07
6.74668e-08
-2.01019e-07
-2.58308e-07
-3.15063e-07
-2.15157e-07
-2.16196e-07
-1.07501e-07
-1.11605e-07
-2.10136e-08
-8.67136e-09
1.03097e-07
1.79246e-07
3.36046e-07
4.11699e-07
4.79308e-07
5.64658e-07
1.63943e-06
6.95192e-07
-4.11308e-06
8.12041e-06
1.84396e-05
-7.79513e-06
-1.56545e-05
1.24479e-05
-2.29687e-06
6.37002e-06
-3.5224e-06
-1.15358e-05
1.06672e-05
7.39659e-06
1.06157e-06
3.27798e-06
5.98724e-05
-2.16097e-07
-1.04496e-07
-2.99927e-07
-1.46371e-07
7.56033e-08
4.42792e-08
7.19067e-08
7.85891e-08
3.99698e-08
1.05552e-07
8.43554e-08
1.53732e-07
1.17434e-07
1.65294e-07
1.20221e-07
1.52283e-07
1.06757e-07
1.29304e-07
7.76214e-08
8.62207e-08
1.73713e-09
-2.75052e-08
-2.10457e-07
-2.56827e-07
-3.70848e-07
-3.36991e-07
-3.73192e-07
-2.49963e-07
-1.24376e-07
-2.16037e-07
-3.2834e-07
-1.1732e-06
3.5937e-07
3.89737e-06
-3.74622e-06
-1.06893e-05
1.03455e-05
-2.11189e-06
-3.7622e-06
1.90163e-08
1.44476e-07
4.92375e-07
3.12818e-07
4.91524e-07
2.76745e-07
-4.35419e-08
-2.01196e-07
-2.82411e-07
-2.86761e-07
-2.12912e-07
-2.00455e-07
-1.2731e-07
-1.69686e-07
-1.184e-07
-1.96008e-07
-1.35695e-07
-2.00626e-07
-1.07005e-07
-2.01069e-07
-1.93943e-07
-1.13717e-07
5.53311e-07
2.46974e-07
-9.83222e-07
1.9869e-07
2.8916e-06
-5.51731e-07
-1.62782e-06
5.59208e-06
8.84315e-07
5.48113e-06
2.32528e-06
-3.45038e-06
9.63621e-06
8.03146e-06
3.71888e-08
1.88514e-05
7.82126e-05
-2.49957e-08
-2.66227e-07
-2.87064e-07
-5.30224e-08
3.31075e-08
1.24884e-07
8.28946e-08
5.0207e-08
6.11962e-08
7.55324e-08
9.88279e-08
1.26581e-07
1.20615e-07
1.40411e-07
1.15931e-07
1.34948e-07
1.05027e-07
1.16654e-07
7.79573e-08
5.81355e-08
-9.37e-09
-1.02937e-07
-2.43868e-07
-4.05189e-07
-5.07818e-07
-6.00053e-07
-5.65547e-07
-5.39238e-07
-3.54697e-07
-5.96447e-07
-6.78006e-07
-1.37256e-06
-1.01268e-06
1.43844e-06
-2.11736e-06
-6.83707e-06
8.6307e-06
-5.4924e-06
-3.36488e-06
-5.24149e-07
5.89024e-07
1.35886e-07
4.80776e-07
3.88131e-07
1.28706e-07
-5.93685e-08
-2.04838e-07
-3.10226e-07
-2.37767e-07
-2.48972e-07
-1.3867e-07
-1.55395e-07
-7.06697e-08
-8.74111e-08
-5.8742e-09
2.21797e-08
1.49026e-07
2.49335e-07
3.54097e-07
3.61739e-07
4.82922e-07
1.45604e-06
8.8696e-07
-1.49357e-06
6.39747e-06
1.58789e-05
-5.72753e-06
-1.556e-05
1.08935e-05
-1.33714e-06
5.83298e-06
-4.60106e-06
-1.34113e-05
1.19225e-05
8.33002e-06
-1.26941e-06
2.01136e-06
3.56032e-05
6.29796e-08
-4.97681e-07
-1.43518e-07
-4.4276e-08
9.41376e-08
6.7231e-08
8.12122e-08
4.20922e-08
6.65374e-08
6.23422e-08
1.2403e-07
1.02999e-07
1.49826e-07
1.0657e-07
1.39647e-07
9.23823e-08
1.20929e-07
7.07166e-08
9.87558e-08
3.17823e-08
5.69286e-08
-5.55289e-08
-5.02504e-08
-2.05543e-07
-1.58898e-07
-3.07523e-07
-2.00917e-07
-2.44446e-07
2.1393e-08
-2.82419e-08
-1.71165e-07
-1.09813e-06
5.21183e-07
4.01023e-06
-3.63539e-06
-1.06865e-05
1.15791e-05
-2.95693e-06
-2.33722e-06
1.08774e-06
1.96105e-07
5.11148e-07
4.13302e-07
2.23707e-07
1.2255e-07
-9.43134e-08
-1.93081e-07
-2.59155e-07
-2.32788e-07
-2.12457e-07
-1.39989e-07
-1.55054e-07
-1.01709e-07
-1.62464e-07
-1.09689e-07
-1.83042e-07
-1.04514e-07
-1.70921e-07
-1.3005e-07
-2.85109e-07
-5.05117e-08
2.82282e-07
1.30668e-07
-9.4088e-07
5.9119e-08
1.70234e-06
-7.9765e-08
-5.01239e-07
4.53994e-06
8.49203e-07
4.49298e-06
2.43257e-06
-3.04362e-06
9.37399e-06
8.31184e-06
-9.33281e-07
1.83913e-05
5.69732e-05
-5.06197e-07
-5.66586e-08
-2.06694e-07
-1.55124e-08
5.42583e-08
1.05917e-07
5.68187e-08
4.7485e-08
4.42228e-08
7.61602e-08
9.63358e-08
1.20792e-07
1.19867e-07
1.18417e-07
1.06016e-07
1.02202e-07
8.6351e-08
8.56671e-08
5.67654e-08
4.59737e-08
-1.28054e-08
-6.54458e-08
-1.73149e-07
-2.8204e-07
-3.90285e-07
-4.89583e-07
-5.14115e-07
-5.18823e-07
-3.63241e-07
-5.12813e-07
-6.48113e-07
-1.24435e-06
-9.40168e-07
1.27043e-06
-1.85732e-06
-6.07474e-06
8.12542e-06
-5.64738e-06
-2.53926e-06
-1.76117e-07
5.454e-07
4.45474e-07
2.88925e-07
2.58364e-07
2.45944e-08
-2.10465e-08
-2.2432e-07
-2.11719e-07
-2.61594e-07
-1.55748e-07
-1.74517e-07
-8.57769e-08
-1.25083e-07
-5.21605e-08
-7.87425e-08
1.80267e-08
5.17185e-08
1.9492e-07
2.07727e-07
2.44058e-07
3.75772e-07
1.1857e-06
9.82322e-07
-6.55268e-07
4.49839e-06
1.12603e-05
-4.46928e-06
-1.25472e-05
8.42052e-06
3.3158e-07
4.95019e-06
-4.58735e-06
-1.43971e-05
1.12907e-05
8.61409e-06
-3.39259e-06
1.5427e-06
2.19577e-05
1.18904e-07
-2.94449e-07
-1.09329e-07
6.88817e-09
8.34112e-08
6.76027e-08
5.32047e-08
4.09411e-08
3.87049e-08
7.85563e-08
8.83507e-08
1.28476e-07
1.04595e-07
1.22673e-07
8.57071e-08
1.00354e-07
6.33652e-08
8.12785e-08
3.94465e-08
6.0518e-08
4.834e-09
1.94047e-08
-5.91291e-08
-5.28287e-08
-1.30259e-07
-1.19576e-07
-1.67726e-07
-7.74849e-08
6.44363e-08
1.36071e-07
-7.98715e-08
-9.77723e-07
4.83788e-07
4.12237e-06
-3.36118e-06
-1.09271e-05
1.19771e-05
-3.64655e-06
-1.26738e-06
5.01412e-07
4.74754e-07
3.5664e-07
3.17089e-07
1.08145e-07
1.22819e-07
-1.12267e-07
-1.45583e-07
-2.25557e-07
-2.17103e-07
-1.63173e-07
-1.46854e-07
-9.91767e-08
-1.24813e-07
-9.37641e-08
-1.36833e-07
-9.5013e-08
-1.2596e-07
-9.71604e-08
-1.75957e-07
-2.09417e-07
-7.80367e-08
2.4293e-07
-5.21475e-08
-8.05697e-07
-4.1815e-08
1.05119e-06
1.50623e-07
3.39687e-07
3.6437e-06
6.70412e-07
3.61746e-06
2.33783e-06
-2.30443e-06
7.97878e-06
7.42293e-06
-1.63674e-06
1.73333e-05
4.36673e-05
-1.28968e-07
-1.80322e-07
-8.11245e-08
3.72666e-08
7.25467e-08
7.52721e-08
4.94305e-08
2.81008e-08
4.38754e-08
5.71943e-08
1.05109e-07
1.0171e-07
1.23741e-07
9.04198e-08
1.01148e-07
6.47231e-08
7.97088e-08
4.35753e-08
5.72455e-08
1.289e-08
9.41831e-09
-6.13062e-08
-9.94004e-08
-2.10816e-07
-2.67956e-07
-3.91983e-07
-4.13435e-07
-4.74551e-07
-3.47683e-07
-4.79261e-07
-6.09593e-07
-1.14154e-06
-8.54462e-07
1.12358e-06
-1.64207e-06
-5.38568e-06
7.38121e-06
-5.52023e-06
-1.9888e-06
5.19982e-07
3.80634e-07
3.1777e-07
1.8036e-07
2.17743e-07
5.13196e-09
-2.86108e-08
-1.5441e-07
-2.42106e-07
-1.77678e-07
-1.95734e-07
-9.78063e-08
-1.33878e-07
-6.12568e-08
-1.14681e-07
-3.75721e-08
-7.1902e-08
5.5594e-08
3.8557e-08
1.43869e-07
2.94397e-08
3.2385e-07
7.39111e-07
7.93605e-07
-7.18862e-07
2.70605e-06
6.14182e-06
-2.42504e-06
-9.75304e-06
5.91993e-06
1.22089e-06
5.06334e-06
-4.7931e-06
-1.42191e-05
1.05685e-05
8.13148e-06
-5.84082e-06
5.33898e-07
1.60265e-05
-1.61621e-07
-8.90734e-08
-2.55963e-08
4.00658e-08
8.24741e-08
6.49588e-08
4.21445e-08
2.85478e-08
3.60955e-08
6.26462e-08
9.25451e-08
1.06388e-07
1.04265e-07
9.2449e-08
7.768e-08
6.52401e-08
5.51815e-08
4.37017e-08
3.94586e-08
2.4635e-08
2.4311e-08
-6.1383e-10
9.92939e-10
-3.7292e-08
-2.28498e-08
-7.08334e-08
-2.7537e-08
-2.05133e-08
1.56387e-07
2.06067e-07
1.68508e-08
-9.34646e-07
5.57008e-07
4.07214e-06
-3.35671e-06
-1.07758e-05
1.28461e-05
-3.9843e-06
-6.64595e-07
1.90279e-07
2.76995e-07
2.11793e-07
2.39898e-07
7.08345e-08
1.07113e-07
-6.17667e-08
-1.39638e-07
-1.811e-07
-1.96112e-07
-1.54318e-07
-1.26514e-07
-9.38514e-08
-9.50358e-08
-8.50396e-08
-1.00911e-07
-7.3973e-08
-8.94911e-08
-7.87857e-08
-1.64794e-07
-1.62454e-07
-5.55465e-08
1.9679e-07
-1.49412e-07
-6.62864e-07
-9.92965e-08
7.61273e-07
3.67175e-07
6.73955e-07
2.73665e-06
6.62585e-07
2.81744e-06
2.26112e-06
-1.43715e-06
6.78626e-06
6.27412e-06
-2.00905e-06
1.4986e-05
3.15607e-05
4.17693e-08
-4.74628e-08
-1.44756e-08
7.59784e-08
7.61271e-08
6.37353e-08
3.73875e-08
2.67845e-08
2.62041e-08
6.78102e-08
7.96253e-08
1.13104e-07
8.82847e-08
9.60984e-08
5.99688e-08
6.92955e-08
3.65516e-08
5.13348e-08
1.82152e-08
3.1309e-08
-1.22927e-08
-1.66536e-08
-8.16708e-08
-1.21297e-07
-2.01536e-07
-2.69273e-07
-3.32422e-07
-3.77943e-07
-3.40449e-07
-4.28371e-07
-5.98153e-07
-1.01297e-06
-7.84498e-07
9.00051e-07
-1.46226e-06
-4.63337e-06
6.65265e-06
-5.17362e-06
-1.62282e-06
2.73185e-07
1.68849e-07
2.0315e-07
1.18947e-07
1.97012e-07
1.86751e-08
7.62485e-09
-1.21463e-07
-1.68917e-07
-2.1076e-07
-1.43493e-07
-1.41531e-07
-7.66451e-08
-1.04192e-07
-5.86847e-08
-9.69978e-08
-2.78852e-08
-5.70993e-08
3.44831e-08
-5.32876e-08
1.08082e-08
5.70142e-08
5.41828e-07
2.06554e-07
-6.27243e-07
7.94719e-07
3.5357e-06
-1.84435e-06
-6.24137e-06
3.52026e-06
1.86574e-06
3.95998e-06
-4.43587e-06
-1.40556e-05
9.54014e-06
7.94483e-06
-7.23291e-06
4.43221e-07
9.03817e-06
1.6692e-08
-1.19105e-08
6.59041e-08
6.11619e-08
8.46642e-08
5.89218e-08
3.57051e-08
2.14386e-08
3.61996e-08
5.16189e-08
8.91647e-08
8.35158e-08
9.65425e-08
6.38388e-08
6.95787e-08
3.86016e-08
4.65824e-08
2.26477e-08
3.04126e-08
1.33825e-08
1.80983e-08
5.38328e-09
8.13802e-09
-3.98411e-09
7.28143e-09
-7.98178e-09
2.77531e-08
4.67407e-08
1.70649e-07
2.17029e-07
3.48719e-08
-7.03629e-07
6.1237e-07
3.95089e-06
-3.10255e-06
-1.04778e-05
1.29375e-05
-4.26434e-06
-2.75882e-07
1.36715e-07
1.64846e-07
1.28654e-07
1.96533e-07
5.88725e-08
1.30334e-07
-2.4628e-08
-8.98241e-08
-1.83456e-07
-1.70413e-07
-1.76996e-07
-9.86669e-08
-1.10106e-07
-5.20636e-08
-9.87024e-08
-4.26542e-08
-9.29301e-08
-2.44964e-08
-1.1118e-07
-9.49434e-08
-1.7531e-07
3.30741e-08
9.49744e-08
-1.21577e-07
-5.70382e-07
2.19767e-08
6.54004e-07
5.05819e-07
7.42805e-07
2.07056e-06
6.375e-07
2.24074e-06
2.08647e-06
-6.89329e-07
5.55334e-06
5.28358e-06
-2.1409e-06
1.25024e-05
2.06541e-05
3.31384e-08
6.23401e-08
3.56404e-08
1.00021e-07
7.4478e-08
5.23026e-08
3.45578e-08
1.61141e-08
3.48326e-08
5.05193e-08
8.4276e-08
8.24251e-08
8.46323e-08
6.27947e-08
5.90148e-08
3.75573e-08
4.12087e-08
2.1286e-08
3.073e-08
8.30475e-09
1.3395e-08
-1.90334e-08
-3.27806e-08
-8.56323e-08
-1.21413e-07
-1.93408e-07
-2.35222e-07
-3.00114e-07
-3.02221e-07
-4.00169e-07
-5.40611e-07
-8.95925e-07
-6.92707e-07
7.09153e-07
-1.2328e-06
-3.96033e-06
5.77262e-06
-4.77875e-06
-1.34762e-06
1.26492e-07
8.62292e-08
1.45981e-07
9.52108e-08
1.92844e-07
3.39496e-08
2.79492e-08
-8.32127e-08
-1.75253e-07
-1.94714e-07
-1.62946e-07
-1.24879e-07
-8.81454e-08
-7.76671e-08
-7.06984e-08
-6.86227e-08
-6.36555e-08
-4.86703e-08
-6.50835e-08
-7.79321e-08
-1.23906e-07
2.56321e-08
1.82664e-07
5.27454e-09
-7.82461e-07
1.29717e-07
1.66063e-06
-8.92768e-07
-3.77122e-06
1.68091e-06
1.56499e-06
2.76384e-06
-3.9283e-06
-1.41448e-05
8.51324e-06
7.59167e-06
-8.60978e-06
2.27482e-07
3.93942e-06
6.38326e-08
3.4059e-08
9.80785e-08
6.41959e-08
7.99109e-08
5.31781e-08
2.80602e-08
2.48001e-08
2.52998e-08
5.65954e-08
5.73682e-08
8.34273e-08
5.47359e-08
6.74383e-08
3.32133e-08
4.67288e-08
1.70808e-08
3.17014e-08
7.88544e-09
2.12857e-08
2.69177e-09
1.46419e-08
6.60044e-10
1.45698e-08
7.48381e-09
2.51245e-08
3.25675e-08
7.51782e-08
1.22781e-07
1.714e-07
5.24055e-08
-4.67264e-07
5.97636e-07
3.94607e-06
-3.12772e-06
-9.8863e-06
1.30411e-05
-4.28207e-06
-5.36514e-08
8.24113e-08
1.1153e-07
9.73951e-08
1.71039e-07
5.21272e-08
1.41598e-07
1.58664e-08
-1.15031e-07
-1.48363e-07
-2.04386e-07
-1.39703e-07
-1.34871e-07
-5.9678e-08
-8.79673e-08
-3.34372e-08
-8.20561e-08
-2.04083e-08
-7.69161e-08
-3.37762e-08
-1.4288e-07
-6.16205e-08
-1.62718e-08
1.35305e-07
-1.71565e-07
-3.24424e-07
6.48364e-08
6.8522e-07
5.42216e-07
7.10802e-07
1.40576e-06
7.82974e-07
1.80636e-06
1.88085e-06
-1.52017e-07
4.48799e-06
4.1029e-06
-2.2098e-06
1.01055e-05
1.29278e-05
3.44353e-08
8.12655e-08
4.21163e-08
1.03948e-07
6.80189e-08
4.96653e-08
2.49783e-08
2.32362e-08
2.60738e-08
5.28477e-08
6.30024e-08
6.77748e-08
5.91328e-08
5.04278e-08
3.89041e-08
3.34171e-08
2.31389e-08
2.46396e-08
1.43067e-08
1.97752e-08
4.38395e-09
5.19819e-09
-2.37648e-08
-3.89839e-08
-8.56127e-08
-1.18655e-07
-1.7797e-07
-2.19655e-07
-2.77645e-07
-3.37994e-07
-4.88986e-07
-7.53106e-07
-5.76837e-07
5.50458e-07
-1.03675e-06
-3.11842e-06
4.97321e-06
-4.2796e-06
-1.13713e-06
7.25099e-08
5.19604e-08
1.16805e-07
7.66185e-08
1.9031e-07
5.97818e-08
6.23422e-09
-3.28953e-08
-1.84498e-07
-1.73915e-07
-1.79411e-07
-9.75716e-08
-1.02351e-07
-4.72261e-08
-8.06402e-08
-4.33511e-08
-7.72809e-08
-4.86682e-08
-9.984e-08
-1.09393e-07
-1.43204e-07
-4.01915e-08
3.98642e-08
-1.5121e-07
-6.42157e-07
-1.84482e-07
8.29707e-07
-3.52689e-07
-2.27756e-06
3.97743e-07
8.6399e-07
1.55282e-06
-3.96684e-06
-1.16966e-05
6.96467e-06
7.31647e-06
-9.27678e-06
6.35444e-07
9.31133e-07
6.00886e-08
3.88184e-08
1.01048e-07
6.21452e-08
7.81614e-08
4.61554e-08
2.82718e-08
1.54084e-08
3.12577e-08
3.14487e-08
5.72789e-08
4.15517e-08
5.62653e-08
2.9591e-08
4.29688e-08
1.64679e-08
3.09368e-08
7.75537e-09
2.13026e-08
1.92818e-09
1.28099e-08
-2.15665e-09
7.10888e-09
-1.19996e-09
1.05592e-08
7.82711e-09
2.70328e-08
3.80984e-08
6.83947e-08
9.96535e-08
4.64967e-08
-3.04301e-07
6.57746e-07
3.15007e-06
-3.20268e-06
-9.05567e-06
1.25608e-05
-4.19033e-06
9.51361e-08
4.96825e-08
8.93397e-08
7.25663e-08
1.53793e-07
6.24142e-08
1.32142e-07
4.7996e-08
-1.05419e-07
-1.54209e-07
-1.65406e-07
-1.55984e-07
-9.27481e-08
-8.36041e-08
-4.06636e-08
-6.32004e-08
-2.62874e-08
-5.87839e-08
-2.00457e-08
-8.01145e-08
-5.75841e-08
-8.31082e-08
6.43428e-08
6.08463e-08
-6.46689e-08
-2.19327e-07
1.98713e-07
5.98036e-07
5.64368e-07
5.1104e-07
1.00481e-06
8.20515e-07
1.53473e-06
1.59308e-06
4.01262e-07
3.47273e-06
3.01383e-06
-2.20152e-06
8.04751e-06
7.93595e-06
3.14356e-08
7.83009e-08
4.27098e-08
1.00155e-07
6.36656e-08
3.47517e-08
2.64064e-08
1.46859e-08
3.07206e-08
3.89052e-08
4.94221e-08
4.64115e-08
4.11042e-08
3.5646e-08
2.78637e-08
2.28874e-08
1.8588e-08
1.3519e-08
1.57558e-08
8.37588e-09
1.26787e-08
-1.02946e-09
-3.68814e-09
-3.04468e-08
-4.73604e-08
-8.96946e-08
-1.21927e-07
-1.82595e-07
-2.23709e-07
-2.95719e-07
-4.04852e-07
-6.19248e-07
-4.4074e-07
3.56025e-07
-8.33329e-07
-2.32113e-06
4.14556e-06
-3.80472e-06
-9.6986e-07
5.54348e-08
3.42423e-08
9.60643e-08
7.58726e-08
1.81953e-07
5.21188e-08
2.06166e-08
-3.63564e-08
-1.36828e-07
-1.90429e-07
-1.17329e-07
-1.21424e-07
-4.5619e-08
-7.69814e-08
-2.54644e-08
-7.15043e-08
-2.8657e-08
-8.19444e-08
-6.16141e-08
-1.36076e-07
-9.40155e-08
-7.59891e-08
8.96718e-09
-1.94591e-07
-4.29544e-07
-2.25216e-07
4.52452e-07
-1.50325e-07
-1.37362e-06
-3.20465e-07
3.60911e-07
2.90497e-07
-2.95107e-06
-9.05538e-06
5.05494e-06
7.36908e-06
-9.34186e-06
7.88228e-07
-6.34077e-07
5.27135e-08
3.87723e-08
9.63727e-08
5.68198e-08
6.20894e-08
4.80773e-08
1.59135e-08
1.74979e-08
1.27153e-08
3.26129e-08
2.39866e-08
4.06197e-08
2.21741e-08
3.54665e-08
1.4612e-08
2.7329e-08
6.84879e-09
2.03245e-08
1.76492e-09
1.21952e-08
-4.66879e-09
1.81961e-09
-1.15824e-08
-5.10758e-09
-1.44244e-08
-6.64229e-09
-1.20447e-08
-2.55829e-10
1.68346e-09
4.08001e-08
-1.0391e-09
-1.8366e-07
4.44654e-07
2.13679e-06
-2.78939e-06
-8.81248e-06
1.1555e-05
-3.86461e-06
2.07141e-07
4.12822e-08
7.05208e-08
6.36968e-08
1.40042e-07
4.19692e-08
1.40292e-07
4.71915e-08
-1.12659e-07
-1.25182e-07
-1.46723e-07
-1.11769e-07
-8.58315e-08
-4.88962e-08
-4.71355e-08
-2.49341e-08
-4.02745e-08
-1.57333e-08
-4.34183e-08
-2.59959e-08
-6.79131e-08
7.51111e-10
3.99511e-08
1.01833e-07
-5.27978e-08
-5.08883e-08
1.9385e-07
5.54686e-07
4.44952e-07
4.25525e-07
6.99122e-07
8.3991e-07
1.31253e-06
1.38041e-06
6.12492e-07
2.6729e-06
2.03266e-06
-2.17047e-06
6.19801e-06
4.90874e-06
2.80379e-08
7.25603e-08
3.902e-08
8.99719e-08
5.86542e-08
2.31274e-08
1.84995e-08
1.81156e-08
2.16257e-08
3.2027e-08
3.26712e-08
3.02529e-08
2.85223e-08
2.30156e-08
2.03288e-08
1.35746e-08
1.11117e-08
8.49754e-09
5.9245e-09
7.00128e-09
9.56576e-10
2.0838e-09
-1.12666e-08
-1.76068e-08
-4.32916e-08
-6.22268e-08
-1.04371e-07
-1.40729e-07
-1.93178e-07
-2.34848e-07
-3.43264e-07
-4.86902e-07
-3.49218e-07
2.50507e-07
-7.24771e-07
-1.5665e-06
3.37822e-06
-3.24164e-06
-8.16712e-07
3.89362e-08
2.04154e-08
8.30739e-08
5.79088e-08
1.77088e-07
5.29596e-08
-7.91194e-09
1.71916e-08
-1.4491e-07
-1.11346e-07
-1.22829e-07
-5.10981e-08
-6.74579e-08
-1.25985e-08
-5.01305e-08
-6.81154e-09
-5.16205e-08
-1.82847e-08
-7.84945e-08
-5.375e-08
-9.07091e-08
-5.04578e-09
-3.11982e-08
-1.01401e-07
-2.79055e-07
-1.06157e-07
2.21295e-07
-7.53573e-09
-8.56558e-07
-4.64479e-07
-6.84883e-08
4.0107e-08
-2.09602e-06
-6.03739e-06
3.76795e-06
6.12572e-06
-8.93113e-06
1.24272e-06
-1.01673e-06
4.69041e-08
3.70083e-08
8.97792e-08
5.22907e-08
5.28074e-08
4.47683e-08
1.42998e-08
7.629e-10
1.52979e-08
9.07038e-09
2.43308e-08
1.32356e-08
2.69045e-08
9.78539e-09
2.25958e-08
2.51768e-09
1.56743e-08
-1.3576e-10
1.11462e-08
-4.66562e-09
1.26837e-09
-1.49634e-08
-1.2722e-08
-2.657e-08
-2.46446e-08
-3.77577e-08
-3.58252e-08
-4.78529e-08
-3.56229e-08
-2.37012e-08
-3.80813e-08
-1.92033e-07
1.88439e-07
1.28443e-06
-2.7022e-06
-7.15029e-06
1.01123e-05
-3.41439e-06
2.62949e-07
2.51792e-08
6.1223e-08
4.74666e-08
1.26489e-07
4.18452e-08
1.23973e-07
7.49248e-08
-1.02336e-07
-7.83431e-08
-9.47575e-08
-8.08539e-08
-5.06066e-08
-3.429e-08
-1.56684e-08
-1.74529e-08
-3.73312e-09
-1.4304e-08
-1.45082e-09
-2.3193e-08
-3.06217e-09
1.29214e-08
8.9715e-08
7.87786e-08
3.14037e-08
2.20082e-09
2.27792e-07
4.28202e-07
3.91592e-07
3.34357e-07
5.41816e-07
7.92676e-07
1.17274e-06
1.14616e-06
7.48524e-07
2.08825e-06
1.15529e-06
-2.06747e-06
4.75363e-06
3.07456e-06
2.54871e-08
6.59679e-08
3.75363e-08
8.24596e-08
5.2675e-08
6.91791e-09
1.39955e-08
1.27193e-08
1.65243e-08
2.209e-08
2.05251e-08
2.18888e-08
1.61465e-08
2.02014e-08
4.68205e-09
9.67053e-09
2.98408e-09
3.22569e-09
-2.25921e-10
-1.6239e-09
-3.2141e-09
-9.26219e-09
-1.28236e-08
-2.54717e-08
-3.7217e-08
-6.03868e-08
-8.61226e-08
-1.22853e-07
-1.55327e-07
-1.97948e-07
-2.83118e-07
-3.97481e-07
-2.59651e-07
1.18309e-07
-6.56107e-07
-8.13583e-07
2.66198e-06
-2.69403e-06
-6.61464e-07
3.15123e-08
1.16731e-08
6.93537e-08
5.53719e-08
1.64202e-07
4.48022e-08
1.45093e-08
2.91628e-08
-6.43343e-08
-9.85441e-08
-5.0229e-08
-5.91982e-08
-4.13065e-09
-2.74674e-08
1.48014e-08
-1.95963e-08
1.64641e-08
-2.58468e-08
1.31898e-09
-4.18069e-08
7.77948e-09
-1.384e-09
4.03843e-08
-6.34575e-08
-8.93785e-08
-4.68673e-08
1.90778e-07
1.01098e-08
-4.22477e-07
-4.43113e-07
-5.25635e-08
1.94031e-08
-1.16857e-06
-3.42193e-06
2.40792e-06
4.37526e-06
-7.5465e-06
1.41313e-06
-1.08139e-06
4.09792e-08
3.50208e-08
8.3457e-08
4.25731e-08
3.8562e-08
4.3612e-08
-1.14526e-09
1.35372e-09
-4.05823e-10
1.06131e-08
5.99105e-09
1.65496e-08
1.08356e-08
9.49136e-09
1.20021e-09
6.95804e-09
-7.99556e-09
7.2488e-09
-3.64146e-09
3.86868e-09
-1.06385e-08
-1.08819e-08
-2.68431e-08
-2.92721e-08
-4.4289e-08
-4.75316e-08
-6.37386e-08
-6.45806e-08
-7.22602e-08
-5.21891e-08
-9.98311e-08
-1.98735e-07
-2.65217e-09
5.97898e-07
-2.14577e-06
-5.07796e-06
7.85343e-06
-2.89563e-06
3.02123e-07
2.25968e-08
4.91881e-08
4.21201e-08
1.12526e-07
2.44793e-08
1.30855e-07
7.32141e-08
-6.05368e-08
-3.81039e-08
-5.42418e-08
-4.8005e-08
-2.50687e-08
-1.11907e-08
5.28121e-09
9.40506e-09
1.62424e-08
1.70143e-08
1.83145e-08
1.77309e-08
2.63022e-08
6.06165e-08
9.83152e-08
1.03712e-07
6.18493e-08
6.61556e-08
2.08307e-07
3.47488e-07
3.23623e-07
2.93518e-07
4.418e-07
7.26677e-07
1.00886e-06
9.69047e-07
7.28682e-07
1.63358e-06
5.43747e-07
-1.7783e-06
3.58516e-06
1.95763e-06
2.15387e-08
5.97394e-08
3.00634e-08
7.33842e-08
4.53233e-08
-8.84015e-09
1.23792e-08
7.45358e-09
1.34348e-08
1.29032e-08
1.66942e-08
1.48172e-08
1.09317e-08
4.48485e-09
-1.37716e-10
-1.48071e-08
1.49443e-08
-1.4319e-08
1.46681e-10
-5.76377e-09
-6.65127e-09
-1.38864e-08
-2.02919e-08
-2.981e-08
-4.15681e-08
-5.83744e-08
-7.99479e-08
-1.05664e-07
-1.31561e-07
-1.67322e-07
-2.43851e-07
-3.18714e-07
-2.14849e-07
3.49665e-08
-5.99664e-07
-2.653e-07
1.93718e-06
-2.14412e-06
-5.10048e-07
2.11255e-08
3.21512e-09
5.98617e-08
4.0616e-08
1.54799e-07
4.62074e-08
2.04493e-08
7.36169e-08
-4.95937e-08
-3.82063e-08
-5.08314e-08
-1.05135e-08
-1.33444e-08
2.31798e-08
8.53625e-09
3.66525e-08
1.49084e-08
3.75007e-08
1.04033e-08
3.95451e-08
2.6303e-08
7.39465e-08
4.45162e-08
3.60724e-08
-1.17661e-08
6.70707e-08
1.39763e-07
9.50505e-08
-1.93662e-07
-2.29167e-07
3.47359e-09
1.53703e-07
-4.88219e-07
-1.92174e-06
1.45606e-06
2.56922e-06
-6.37647e-06
1.68374e-06
-7.28528e-07
3.61504e-08
3.03731e-08
7.59887e-08
3.50875e-08
2.79398e-08
4.1795e-08
-4.30974e-09
-7.10555e-09
-1.97628e-10
1.67281e-09
9.47147e-09
4.83825e-09
9.37474e-09
-8.06382e-09
-1.70418e-08
2.035e-08
-1.87273e-08
-3.71423e-09
-1.41964e-08
-4.5026e-09
-3.76541e-09
-1.59156e-08
-2.35113e-08
-3.85686e-08
-4.55777e-08
-6.00879e-08
-6.70724e-08
-8.0426e-08
-7.76645e-08
-8.61718e-08
-1.19364e-07
-2.08573e-07
-7.92491e-08
2.89097e-07
-1.47299e-06
-3.04026e-06
5.98959e-06
-2.36975e-06
2.42462e-07
1.18272e-08
4.3785e-08
3.01555e-08
9.89203e-08
2.5596e-08
1.22189e-07
9.42016e-08
-3.64942e-08
-6.34236e-12
-3.02362e-08
-2.3841e-08
-1.74777e-08
1.0331e-08
1.53798e-08
3.53411e-08
3.17298e-08
4.54417e-08
3.83603e-08
5.16818e-08
5.31775e-08
9.10389e-08
1.08789e-07
1.1824e-07
8.6585e-08
1.01821e-07
1.87312e-07
2.7948e-07
2.716e-07
2.59469e-07
3.76033e-07
6.21961e-07
8.38424e-07
7.47419e-07
6.27962e-07
1.28378e-06
1.34061e-07
-1.44764e-06
2.74797e-06
1.30703e-06
1.81846e-08
5.27164e-08
2.52021e-08
6.48838e-08
3.83013e-08
-1.65459e-08
7.80645e-09
5.89198e-09
7.38068e-09
1.18166e-08
1.04901e-08
1.4305e-08
-5.48862e-09
-1.6512e-08
1.49497e-08
-8.74084e-09
6.04845e-09
-3.4884e-08
-9.1632e-09
-1.98001e-08
-1.32594e-08
-1.45272e-08
-2.43149e-08
-3.27761e-08
-4.52062e-08
-5.77114e-08
-7.52269e-08
-9.294e-08
-1.14324e-07
-1.47223e-07
-2.0911e-07
-2.60732e-07
-1.61272e-07
-3.71353e-08
-5.17638e-07
9.82956e-08
1.36813e-06
-1.6576e-06
-3.86042e-07
1.68632e-08
-1.48173e-09
4.914e-08
3.90882e-08
1.40447e-07
4.35907e-08
4.18442e-08
8.00149e-08
-6.64388e-09
-3.21534e-08
-2.40878e-08
-1.66588e-08
1.0569e-08
2.08418e-08
3.94816e-08
4.00631e-08
5.138e-08
4.67329e-08
5.60178e-08
5.6666e-08
7.94505e-08
8.36299e-08
8.87915e-08
6.44383e-08
7.21671e-08
1.00613e-07
1.56607e-07
1.14499e-07
-1.87904e-08
-7.21294e-08
9.70623e-08
2.13369e-07
-1.72154e-07
-1.07216e-06
9.15073e-07
8.45424e-07
-4.91717e-06
1.74783e-06
-3.44412e-07
3.09798e-08
2.59111e-08
6.83914e-08
2.4141e-08
2.03312e-08
3.58872e-08
-9.03432e-09
-9.02838e-09
-2.76229e-09
1.67808e-09
7.56079e-09
-1.05116e-09
-1.0943e-08
6.98068e-09
-9.69495e-09
2.09608e-08
-3.41101e-08
-9.01763e-09
-4.8877e-08
-1.5222e-08
-2.29875e-08
-1.80495e-08
-2.67504e-08
-3.70987e-08
-4.90931e-08
-5.84752e-08
-7.0001e-08
-7.74177e-08
-8.50054e-08
-9.43451e-08
-1.34507e-07
-1.76437e-07
-8.83844e-08
1.91936e-07
-9.93737e-07
-1.15575e-06
4.13888e-06
-1.87874e-06
1.91304e-07
1.17172e-08
3.52315e-08
2.68083e-08
8.56905e-08
1.57405e-08
1.229e-07
8.96594e-08
-1.06854e-08
1.42069e-08
-1.36804e-08
-2.26878e-08
-6.46459e-09
7.85304e-09
3.12209e-08
3.86398e-08
5.22192e-08
5.27791e-08
6.16797e-08
6.2756e-08
7.9014e-08
9.5393e-08
1.1919e-07
1.14994e-07
1.0547e-07
1.10488e-07
1.68957e-07
2.20408e-07
2.26344e-07
2.23092e-07
3.16467e-07
5.00726e-07
6.39129e-07
5.31235e-07
5.49931e-07
9.69303e-07
-1.14678e-07
-1.03478e-06
2.12166e-06
9.22593e-07
1.39746e-08
4.61089e-08
1.63187e-08
5.671e-08
2.92414e-08
-2.04687e-08
5.22857e-09
4.11477e-09
5.10404e-09
9.27249e-09
8.97292e-09
2.68265e-09
-9.27566e-10
-6.43158e-09
1.96016e-08
-9.92653e-09
-5.50814e-09
-4.63506e-08
-1.95761e-08
-4.02657e-08
-3.01622e-08
-2.65636e-08
-2.70227e-08
-3.5293e-08
-4.51092e-08
-5.68555e-08
-6.89523e-08
-8.36583e-08
-1.00939e-07
-1.32549e-07
-1.77371e-07
-2.08583e-07
-1.17429e-07
-1.13169e-07
-3.98476e-07
2.80742e-07
8.64709e-07
-1.24701e-06
-2.89758e-07
1.00008e-08
-6.82772e-09
4.19301e-08
2.87533e-08
1.29047e-07
4.48107e-08
4.4309e-08
9.58838e-08
-2.79958e-10
-1.69707e-08
-2.52715e-08
-1.25344e-08
8.98275e-09
2.80301e-08
4.25029e-08
5.16755e-08
5.782e-08
6.20551e-08
6.68002e-08
7.57825e-08
8.93451e-08
9.76044e-08
9.41596e-08
8.95279e-08
9.84094e-08
1.24599e-07
1.48016e-07
1.30987e-07
6.30426e-08
3.89448e-08
1.35182e-07
1.99746e-07
-5.65926e-08
-5.17798e-07
5.17479e-07
-1.03249e-07
-3.69201e-06
1.66676e-06
3.7124e-08
2.6713e-08
2.04527e-08
5.98634e-08
1.67816e-08
1.54667e-08
3.19731e-08
-1.06039e-08
-8.47809e-09
-3.72307e-09
1.84789e-09
4.77803e-09
-5.49381e-09
1.1806e-09
7.67917e-09
9.30701e-09
-3.67846e-09
-1.8349e-08
-1.56662e-08
-3.90377e-08
-4.07123e-08
-4.00927e-08
-2.42056e-08
-2.71058e-08
-3.60076e-08
-4.63331e-08
-5.60261e-08
-6.50514e-08
-7.37873e-08
-8.28047e-08
-9.88984e-08
-1.26422e-07
-1.46385e-07
-6.01183e-08
7.07769e-08
-5.5197e-07
-1.65076e-07
2.75115e-06
-1.37135e-06
1.13964e-07
4.3037e-09
3.1683e-08
1.79441e-08
7.40798e-08
1.76279e-08
1.12153e-07
9.62671e-08
1.19608e-09
2.45476e-08
-7.18243e-09
-2.04774e-08
-9.52998e-09
1.0144e-08
2.9063e-08
4.34952e-08
5.24675e-08
5.90605e-08
6.34652e-08
7.00866e-08
7.98994e-08
9.47833e-08
1.08573e-07
1.09152e-07
1.02444e-07
1.10039e-07
1.40893e-07
1.73256e-07
1.80029e-07
1.85399e-07
2.53566e-07
3.74401e-07
4.49106e-07
3.74312e-07
4.86242e-07
6.98553e-07
-2.31986e-07
-6.74196e-07
1.64196e-06
7.14073e-07
1.1035e-08
3.91266e-08
1.11741e-08
4.86704e-08
2.37764e-08
-2.13983e-08
5.45911e-09
1.22112e-09
4.17561e-09
6.51253e-09
5.62178e-09
-1.27019e-10
-3.74414e-09
1.34026e-08
5.74325e-09
-4.32118e-09
-9.18558e-09
-1.95681e-08
-3.44598e-08
-5.43121e-08
-2.95601e-08
-3.50856e-08
-2.96901e-08
-3.39364e-08
-4.30138e-08
-5.26313e-08
-6.28102e-08
-7.43836e-08
-9.11215e-08
-1.16937e-07
-1.49007e-07
-1.61314e-07
-1.02834e-07
-1.65955e-07
-2.83599e-07
2.98394e-07
5.06901e-07
-9.075e-07
-2.32903e-07
7.48964e-09
-9.30184e-09
3.3732e-08
2.79858e-08
1.14856e-07
4.04259e-08
5.28266e-08
9.04111e-08
1.41571e-08
-1.47384e-08
-2.29495e-08
-1.38862e-08
6.40372e-09
2.58462e-08
4.02968e-08
5.02459e-08
5.64344e-08
6.15826e-08
6.66263e-08