/*--------------------------------*- C++ -*----------------------------------*\
| =========                 |                                                 |
| \\      /  F ield         | OpenFOAM: The Open Source CFD Toolbox           |
|  \\    /   O peration     | Version:  2312                                  |
|   \\  /    A nd           | Website:  www.openfoam.com                      |
|    \\/     M anipulation  |                                                 |
\*---------------------------------------------------------------------------*/
FoamFile
{
    version     2.0;
    format      ascii;
    arch        "LSB;label=32;scalar=64";
    class       volScalarField;
    location    "500";
    object      magR;
}
// * * * * * * * * * * * * * * * * * * * * * * * * * * * * * * * * * * * * * //

dimensions      [0 2 -2 0 0 0 0];

internalField   nonuniform List<scalar> 
10720
(
0.023538
0.0274622
0.0324771
0.0392891
0.0473599
0.0576333
0.0707697
0.0870426
0.107706
0.134069
0.16813
0.213099
0.273425
0.356422
0.474562
0.647437
0.913675
1.32394
2.04424
3.16556
5.69259
9.51388
22.2723
43.4784
48.1854
46.1004
45.2992
46.1256
47.1516
47.4115
46.7836
45.3874
43.1309
40.0434
36.0566
31.264
24.7599
18.2993
4.26587
0.0200321
0.0171884
0.0140008
0.0112669
0.00868559
0.00635915
0.00448041
0.00335174
0.00350619
0.00474345
0.00705508
0.0106247
0.0158801
0.0234977
0.0343389
0.0497158
0.0718252
0.104784
0.156208
0.239903
0.383332
0.637033
1.121
2.05261
4.08369
8.35114
18.6656
38.4622
54.5031
61.3868
63.3395
63.659
63.2924
62.3971
61.0188
59.2334
56.6214
53.5797
43.885
0.00360469
0.0035844
0.00354304
0.0034405
0.00328197
0.00309976
0.00288482
0.00264314
0.00240398
0.0021695
0.00194594
0.00179066
0.0017693
0.00194391
0.00252452
0.0039724
0.00759106
0.0159177
0.0384826
0.0943852
0.278637
0.768801
2.35452
7.57495
14.8635
22.3831
29.4467
34.4414
35.4311
32.5057
27.7009
22.838
18.8944
15.8723
13.5506
11.709
10.4218
9.07986
9.74956
0.0035722
0.00352403
0.00342528
0.00327883
0.00307843
0.00281403
0.00250372
0.0022027
0.00192412
0.00164763
0.00138453
0.00115676
0.000964327
0.000801119
0.000662816
0.000546301
0.000447472
0.00036386
0.000290609
0.000223737
0.000157664
9.31612e-05
3.22832e-05
5.26521e-06
1.34241e-05
0.00191624
0.010375
0.0836547
0.281746
0.55142
0.824378
1.06464
1.26669
1.44423
1.61011
1.7808
1.9613
2.36381
3.28787
0.00241978
0.00240068
0.00234654
0.00226375
0.00217717
0.00208202
0.00198581
0.00189929
0.00182488
0.00176715
0.00172253
0.00169695
0.00169017
0.00170511
0.00170914
0.00166166
0.00142964
0.00126145
0.000299895
0.00776167
0.015921
0.00779423
0.00191982
0.0367572
0.247064
0.806622
2.0235
4.55501
9.01881
14.901
20.2146
22.8253
22.3138
20.0357
17.3833
14.8927
12.9413
10.7139
12.0387
0.00243862
0.00243561
0.00242913
0.00238586
0.00230911
0.00218026
0.00200263
0.00179981
0.00161135
0.00141748
0.00120888
0.00100688
0.000826098
0.00067042
0.000541888
0.000438106
0.000357222
0.00029587
0.000251244
0.000219186
0.0001971
0.000182769
0.000174901
0.000170575
0.000170353
0.000169185
0.00017994
0.000106713
0.000756715
0.00502254
0.0142338
0.0299799
0.0675798
0.141404
0.250404
0.383871
0.528948
0.633165
1.08072
0.00204215
0.00204636
0.00203608
0.00201912
0.00198413
0.00193205
0.00186712
0.00178607
0.00169343
0.00159096
0.00148086
0.00136465
0.00124346
0.00111952
0.000993762
0.000862365
0.000729502
0.00061534
0.000475003
0.000253257
2.8987e-05
0.000983768
0.00247668
0.0098596
0.0291604
0.0542578
0.0113363
0.0117302
0.0508044
0.444402
1.95543
5.33051
9.9944
13.8699
15.5398
15.3155
14.4033
12.6066
13.5765
0.00202024
0.00198706
0.00193497
0.00187223
0.00179357
0.00169056
0.00157029
0.00144231
0.00130906
0.00116444
0.00101496
0.000874827
0.000751019
0.000644317
0.000554162
0.000478581
0.000416398
0.000365753
0.000325104
0.000292011
0.000265121
0.000242534
0.000222291
0.000201004
0.00017913
0.000160942
0.000147193
0.000137313
0.000125328
0.0001099
8.2506e-05
5.20129e-05
0.000415274
0.000705759
0.0026346
0.014149
0.0465834
0.117924
0.429246
0.0015321
0.00152939
0.00151745
0.00149615
0.0014632
0.00141852
0.00136452
0.00130202
0.00123305
0.00116185
0.00109069
0.00102244
0.00096014
0.000905693
0.000860414
0.000822319
0.000782668
0.000732605
0.000684638
0.000618271
0.000404189
6.9639e-05
1.92006e-05
4.28424e-06
0
0
0.00375499
0.0110245
0.0330973
0.0157222
0.0355051
0.0648846
0.409716
2.39631
6.15339
9.97244
12.3857
12.8386
14.2907
0.00152813
0.00151732
0.0014958
0.00146134
0.00141275
0.0013439
0.00126153
0.00117308
0.00107878
0.000975267
0.000867585
0.000762215
0.000663259
0.000572435
0.000490963
0.000419361
0.000357802
0.000306016
0.000263399
0.000228655
0.000200605
0.000177734
0.000158417
0.000139991
0.000121266
0.000103972
9.02366e-05
8.07406e-05
7.65755e-05
7.072e-05
8.65936e-05
2.03276e-05
0.000134682
0.000659526
0.00018065
0.000601876
0.00164559
0.00386994
0.0832559
0.0012558
0.00126116
0.00126065
0.00125615
0.00124381
0.00122381
0.00119703
0.0011624
0.00112064
0.00107288
0.00101954
0.000961856
0.00090121
0.000838672
0.00077535
0.000709706
0.000638274
0.000564715
0.000496304
0.000436917
0.000385587
0.000327699
0.000221
5.52304e-05
1.26113e-05
6.13391e-06
1.45811e-06
0
0
0.00216541
0.00846264
0.0450815
0.00803287
0.110983
0.243263
2.28041
6.36692
10.2639
13.6359
0.00124442
0.0012287
0.00120582
0.00117563
0.00113689
0.00108596
0.00102734
0.00096445
0.000896061
0.00082046
0.000741285
0.00066248
0.000587067
0.000516805
0.000452913
0.000396189
0.000346882
0.000304851
0.000269606
0.000240243
0.000215733
0.000194776
0.00017593
0.000157178
0.000137706
0.000119166
0.000102994
8.94592e-05
7.81061e-05
6.8664e-05
6.05567e-05
5.31675e-05
4.23006e-05
2.99887e-05
1.67164e-05
7.60404e-05
0.000280653
0.000884172
0.00947965
0.00101587
0.00102033
0.00102104
0.00101846
0.00101034
0.000996296
0.00097665
0.000950828
0.000919056
0.000882212
0.000840925
0.000796229
0.000749502
0.000702073
0.00065505
0.000610001
0.000569167
0.000531144
0.00049228
0.000452019
0.000413651
0.00037674
0.000344963
0.000293802
0.000205552
0.000108475
2.19196e-05
6.65007e-06
3.86348e-06
4.63587e-07
0
0
0.00100294
0.0350252
0.0264852
0.156816
1.04511
5.23311
10.9392
0.00100752
0.000996227
0.000979796
0.000957167
0.000927814
0.000890147
0.00084782
0.000801683
0.000750874
0.000695161
0.000636603
0.000577412
0.000519381
0.000463748
0.000411553
0.000363628
0.000320435
0.000282254
0.000249085
0.000220536
0.000196058
0.000174833
0.000155813
0.000137535
0.000119233
0.000101891
8.66467e-05
7.38159e-05
6.31341e-05
5.44616e-05
4.79755e-05
4.37744e-05
4.13911e-05
3.81097e-05
2.74301e-05
8.22943e-06
1.45477e-06
7.76814e-08
0.000279526
0.000841976
0.000847724
0.000851137
0.000852513
0.000850178
0.000843802
0.000833637
0.000818937
0.0007997
0.000776333
0.000748805
0.000717647
0.000683474
0.000646845
0.000608412
0.000568959
0.000527993
0.000484466
0.000440353
0.000398633
0.000361902
0.000331856
0.000309139
0.00029231
0.000268087
0.000227643
0.000175
0.000115762
7.04864e-05
7.31411e-06
3.74017e-06
1.69194e-07
0
0
0.0038223
0.0662579
0.121611
1.1895
6.55332
0.00083334
0.000822932
0.000808981
0.000790464
0.000767262
0.00073851
0.000707099
0.000672473
0.000634133
0.000592539
0.000548627
0.000503774
0.000459085
0.000415399
0.000373568
0.000334403
0.000298397
0.000265982
0.00023732
0.000212244
0.000190353
0.00017103
0.000153436
0.000136467
0.000119547
0.000103401
8.89176e-05
7.63435e-05
6.54157e-05
5.58908e-05
4.7701e-05
4.06891e-05
3.46857e-05
2.95204e-05
2.57864e-05
2.15202e-05
1.57498e-05
1.83117e-06
1.92243e-05
0.000702354
0.000707889
0.000711922
0.00071444
0.000714348
0.000711283
0.000705316
0.000695788
0.000682615
0.000665919
0.000645646
0.000622083
0.000595645
0.000566758
0.000536049
0.000504011
0.000471376
0.000439415
0.000408234
0.000377801
0.000348647
0.000322155
0.000298584
0.000277158
0.000255668
0.000230652
0.000203355
0.000176606
0.000150719
0.000110355
7.31934e-05
3.3989e-06
1.91639e-06
0
0
0
0.0381967
0.162385
2.6066
0.000694767
0.000685984
0.000674636
0.000659565
0.000641189
0.000619003
0.000595089
0.0005686
0.00053931
0.000507822
0.000474579
0.000440363
0.000405839
0.000371521
0.000338
0.000305892
0.000275677
0.000247756
0.000222379
0.000199583
0.000179196
0.000160828
0.000143893
0.000127649
0.000111692
9.64875e-05
8.27671e-05
7.0808e-05
6.04561e-05
5.15339e-05
4.40019e-05
3.791e-05
3.32657e-05
3.00307e-05
2.81678e-05
2.84479e-05
3.05129e-05
3.24856e-05
1.22264e-06
0.000592105
0.00059753
0.000602055
0.000605556
0.000607185
0.000606763
0.000604233
0.000599033
0.000591079
0.000580363
0.000566713
0.000550259
0.000531199
0.000509743
0.000486232
0.000461004
0.000434583
0.000406926
0.000378223
0.000349703
0.000322863
0.000298891
0.000277914
0.000257936
0.000236337
0.000212089
0.00018758
0.000166561
0.000150305
0.000136986
0.000124007
9.01215e-05
3.8054e-05
3.32428e-06
0
0
4.85061e-06
0.00290612
0.67977
0.000585158
0.000577505
0.000567969
0.000555439
0.000540625
0.000523311
0.000504678
0.000484053
0.00046146
0.000437335
0.0004119
0.000385623
0.000358848
0.000331847
0.000305059
0.000278931
0.000253834
0.000230172
0.0002082
0.000188046
0.000169671
0.000152839
0.000137148
0.000122106
0.000107406
9.33871e-05
8.06237e-05
6.93634e-05
5.94944e-05
5.08551e-05
4.33839e-05
3.70492e-05
3.17622e-05
2.76079e-05
2.45704e-05
2.39506e-05
2.35767e-05
3.97308e-05
1.64908e-05
0.000502712
0.000507792
0.000512347
0.000516192
0.000518656
0.000519673
0.00051907
0.000516458
0.000511668
0.000504668
0.000495243
0.000483426
0.000469289
0.000452921
0.000434563
0.000414489
0.000393001
0.000370586
0.000347752
0.000324952
0.000302911
0.000282221
0.000263137
0.00024458
0.000224376
0.000201523
0.000177713
0.000156336
0.000139335
0.000127131
0.000118165
0.000112791
9.87609e-05
5.73772e-05
3.7951e-06
0
0
0.00358115
0.175349
0.000496491
0.000489865
0.000481863
0.000471376
0.000459293
0.000445617
0.000430844
0.000414548
0.000396941
0.000378277
0.000358624
0.00033828
0.000317429
0.000296192
0.00027481
0.000253602
0.00023284
0.000212838
0.000193866
0.00017608
0.000159506
0.00014404
0.000129442
0.000115398
0.000101729
8.86925e-05
7.67321e-05
6.60864e-05
5.67082e-05
4.84909e-05
4.14017e-05
3.5451e-05
3.06358e-05
2.70239e-05
2.4554e-05
2.42465e-05
2.41281e-05
3.4264e-05
4.26974e-05
0.000429701
0.000434434
0.000438879
0.000442836
0.000445808
0.00044774
0.000448488
0.000447694
0.000445229
0.000441028
0.000434876
0.000426753
0.000416651
0.000404594
0.000390696
0.00037512
0.000358099
0.000339985
0.000320904
0.000301279
0.000281975
0.000263649
0.000246468
0.000229687
0.000211681
0.000191476
0.000170105
0.0001501
0.00013325
0.000119798
0.000108908
0.000101859
9.84847e-05
9.48636e-05
6.19775e-05
3.0445e-06
0
0.00100107
0.0607107
0.000424134
0.000418329
0.000411552
0.000402717
0.000392757
0.00038179
0.000369918
0.000356896
0.000343033
0.000328429
0.000313118
0.000297271
0.000280961
0.000264195
0.000247138
0.000229976
0.000212876
0.000196091
0.000179831
0.000164282
0.000149525
0.00013553
0.00012215
0.000109203
9.66291e-05
8.46181e-05
7.35211e-05
6.35527e-05
5.47039e-05
4.68995e-05
4.01069e-05
3.43329e-05
2.95493e-05
2.58228e-05
2.31781e-05
2.24908e-05
2.27379e-05
2.92279e-05
4.66934e-05
0.000369349
0.000373706
0.000377932
0.000381825
0.000384996
0.000387418
0.000388978
0.000389351
0.000388422
0.00038612
0.000382244
0.000376747
0.000369577
0.000360693
0.000350163
0.000338081
0.000324584
0.00030997
0.000294465
0.000278362
0.000262191
0.000246433
0.000231197
0.00021601
0.000199797
0.000181842
0.000162867
0.000144784
0.000129108
0.000115984
0.000104812
9.55226e-05
8.90468e-05
8.65961e-05
9.12305e-05
4.66371e-05
7.32825e-08
0.000317944
0.0201381
0.000364394
0.000359296
0.000353504
0.000346033
0.000337756
0.000328837
0.000319185
0.000308676
0.000297649
0.000286128
0.0002741
0.00026166
0.00024883
0.000235579
0.000221952
0.000208068
0.000194029
0.000180012
0.000166175
0.000152675
0.000139615
0.000127011
0.000114805
0.000102924
9.13659e-05
8.03023e-05
7.00065e-05
6.06749e-05
5.23316e-05
4.49337e-05
3.84671e-05
3.29544e-05
2.83957e-05
2.48584e-05
2.23687e-05
2.16338e-05
2.1941e-05
2.69071e-05
4.29092e-05
0.000319052
0.000323029
0.000326991
0.000330731
0.000333941
0.000336633
0.000338678
0.000339808
0.000339938
0.000338979
0.000336765
0.00033322
0.000328294
0.000321925
0.000314117
0.000304911
0.000294379
0.000282752
0.000270178
0.000256831
0.000243106
0.000229487
0.000216069
0.000202516
0.000188064
0.000172179
0.000155386
0.000139173
0.00012485
0.000112631
0.000102095
9.29083e-05
8.51928e-05
7.94767e-05
7.8216e-05
9.34568e-05
1.34509e-07
3.25047e-05
0.00510365
0.000314624
0.000310149
0.000305147
0.000298802
0.000291881
0.000284526
0.000276586
0.000268051
0.000259195
0.000250018
0.000240489
0.000230668
0.000220532
0.000210009
0.000199122
0.000187905
0.0001764
0.000164734
0.000153022
0.000141384
0.000129909
0.000118653
0.000107612
9.67916e-05
8.62358e-05
7.60917e-05
6.65895e-05
5.79012e-05
5.00721e-05
4.30868e-05
3.69423e-05
3.16665e-05
2.72594e-05
2.37873e-05
2.12885e-05
2.04295e-05
2.06115e-05
2.49124e-05
3.85946e-05
0.000276794
0.0002804
0.000284082
0.000287602
0.000290745
0.000293541
0.000295838
0.000297434
0.000298261
0.000298223
0.000297185
0.000295075
0.000291816
0.000287339
0.000281615
0.00027466
0.000266518
0.000257313
0.000247213
0.00023633
0.000224877
0.00021327
0.000201595
0.000189615
0.000176811
0.000162793
0.00014794
0.000133418
0.000120346
0.000109032
9.92034e-05
9.06625e-05
8.31716e-05
7.75494e-05
6.97919e-05
8.75263e-05
4.42232e-05
4.81776e-07
0.000367685
0.000272827
0.00026889
0.000264551
0.000259126
0.000253302
0.000247166
0.00024058
0.000233592
0.000226421
0.000219051
0.000211449
0.000203635
0.000195578
0.000187198
0.000178473
0.000169411
0.000160008
0.000150328
0.000140449
0.000130463
0.000120454
0.000110484
0.000100575
9.07623e-05
8.11442e-05
7.18709e-05
6.31267e-05
5.50614e-05
4.77355e-05
4.1156e-05
3.53326e-05
3.03014e-05
2.60736e-05
2.27191e-05
2.02753e-05
1.93463e-05
1.94146e-05
2.30486e-05
3.48102e-05
0.000241037
0.000244306
0.000247696
0.000250974
0.000253997
0.000256781
0.000259193
0.000261065
0.000262342
0.000262938
0.00026273
0.00026165
0.00025963
0.000256592
0.000252511
0.000247361
0.000241156
0.000233956
0.000225921
0.00021709
0.000207578
0.000197729
0.000187642
0.000177159
0.000165904
0.0001536
0.000140524
0.000127577
0.0001157
0.000105251
9.60787e-05
8.81033e-05
8.10799e-05
7.58863e-05
6.90781e-05
6.99712e-05
8.29398e-05
1.6873e-07
2.58879e-05
0.000237494
0.000234006
0.00023023
0.000225566
0.000220638
0.000215469
0.000209957
0.000204191
0.000198336
0.000192369
0.000186255
0.000180006
0.000173572
0.000166865
0.00015986
0.000152521
0.000144835
0.000136822
0.000128524
0.000120002
0.000111319
0.000102538
9.36963e-05
8.48654e-05
7.61551e-05
6.77128e-05
5.96945e-05
5.22359e-05
4.5406e-05
3.92289e-05
3.37244e-05
2.89344e-05
2.48756e-05
2.16182e-05
1.92026e-05
1.81846e-05
1.81483e-05
2.11943e-05
3.13811e-05
0.000210594
0.000213557
0.000216656
0.000219694
0.000222555
0.000225257
0.000227687
0.000229701
0.000231243
0.00023225
0.000232615
0.000232274
0.000231176
0.000229237
0.000226415
0.000222676
0.000218013
0.000212448
0.000206108
0.000199012
0.000191204
0.00018293
0.000174299
0.000165212
0.0001554
0.000144656
0.000133193
0.000121706
0.000110973
0.000101368
9.28392e-05
8.53482e-05
7.88056e-05
7.3517e-05
6.94038e-05
6.11802e-05
9.20336e-05
4.1803e-07
3.93581e-10
0.000207438
0.000204343
0.000201031
0.000197006
0.000192812
0.000188419
0.000183773
0.000178982
0.000174165
0.000169296
0.000164345
0.000159306
0.000154132
0.000148746
0.0001431
0.000137154
0.000130869
0.000124248
0.000117297
0.000110057
0.000102568
9.48775e-05
8.70335e-05
7.91227e-05
7.12702e-05
6.36086e-05
5.62819e-05
4.94088e-05
4.30621e-05
3.72797e-05
3.20902e-05
2.75396e-05
2.36521e-05
2.04989e-05
1.81222e-05
1.70275e-05
1.68957e-05
1.94204e-05
2.82037e-05
0.00018454
0.000187219
0.000190039
0.000192845
0.000195517
0.000198104
0.000200483
0.000202542
0.000204234
0.000205505
0.00020626
0.000206453
0.00020602
0.000204894
0.000203034
0.000200396
0.000196965
0.000192731
0.000187783
0.000182134
0.000175789
0.00016889
0.000161569
0.000153767
0.00014528
0.000135957
0.000125958
0.000115819
0.000106179
9.74034e-05
8.95195e-05
8.2501e-05
7.6406e-05
7.10788e-05
6.80516e-05
5.95255e-05
7.79712e-05
2.94315e-05
6.08235e-07
0.000181723
0.000178975
0.000176058
0.000172567
0.00016898
0.000165217
0.000161275
0.000157265
0.000153271
0.000149266
0.000145226
0.000141141
0.000136959
0.000132606
0.000128039
0.000123207
0.000118064
0.000112593
0.000106786
0.000100651
9.42196e-05
8.75299e-05
8.06198e-05
7.35676e-05
6.65056e-05
5.95802e-05
5.29111e-05
4.66011e-05
4.07242e-05
3.53277e-05
3.04478e-05
2.61329e-05
2.24141e-05
1.93617e-05
1.70197e-05
1.58509e-05
1.56307e-05
1.77214e-05
2.52574e-05
0.000162134
0.000164547
0.000167117
0.000169686
0.000172174
0.000174615
0.000176909
0.000178946
0.000180704
0.000182126
0.000183134
0.000183685
0.000183732
0.000183208
0.000182081
0.000180299
0.000177838
0.000174682
0.00017087
0.000166423
0.000161318
0.00015562
0.000149471
0.000142836
0.000135556
0.000127515
0.000118837
0.000109936
0.000101331
9.33636e-05
8.6117e-05
7.95881e-05
7.38825e-05
6.88014e-05
6.55456e-05
5.99542e-05
6.37157e-05
5.98353e-05
7.32466e-06
0.000159616
0.00015717
0.000154593
0.000151556
0.000148463
0.000145226
0.000141859
0.000138481
0.000135144
0.000131828
0.000128508
0.000125169
0.000121767
0.000118231
0.000114519
0.000110582
0.000106367
0.000101845
9.69969e-05
9.18194e-05
8.63171e-05
8.05143e-05
7.44462e-05
6.81958e-05
6.18868e-05
5.56512e-05
4.95991e-05
4.3824e-05
3.83987e-05
3.33763e-05
2.87986e-05
2.47149e-05
2.11632e-05
1.82114e-05
1.59061e-05
1.46712e-05
1.43698e-05
1.6097e-05
2.25339e-05
0.000142778
0.000144951
0.000147287
0.000149636
0.000151936
0.000154224
0.000156399
0.000158381
0.000160142
0.000161636
0.000162798
0.000163594
0.000163981
0.000163906
0.000163327
0.000162204
0.000160503
0.000158203
0.000155306
0.000151849
0.000147791
0.000143139
0.000138021
0.000132428
0.000126234
0.000119346
0.000111858
0.000104087
9.64521e-05
8.92636e-05
8.2638e-05
7.66067e-05
7.12553e-05
6.65542e-05
6.28593e-05
5.95687e-05
5.62361e-05
6.43863e-05
3.02635e-05
0.000140527
0.000138345
0.000136063
0.000133416
0.000130726
0.000127928
0.000125039
0.000122171
0.000119364
0.000116598
0.00011385
0.000111103
0.000108316
0.000105429
0.000102399
9.91772e-05
9.57146e-05
9.19762e-05
8.79302e-05
8.35633e-05
7.88731e-05
7.38661e-05
6.85641e-05
6.30447e-05
5.74267e-05
5.18298e-05
4.63559e-05
4.10883e-05
3.60966e-05
3.14362e-05
2.71527e-05
2.32954e-05
1.9908e-05
1.70551e-05
1.47864e-05
1.34914e-05
1.31158e-05
1.45508e-05
2.00385e-05
0.000125993
0.000127953
0.000130069
0.000132213
0.00013433
0.000136458
0.000138503
0.0001404
0.000142125
0.000143637
0.000144884
0.000145835
0.000146453
0.000146694
0.000146522
0.000145899
0.000144787
0.000143163
0.000141013
0.000138376
0.000135193
0.000131438
0.000127223
0.000122553
0.000117328
0.000111468
0.000105043
9.82971e-05
9.15654e-05
8.51215e-05
7.90979e-05
7.35577e-05
6.85559e-05
6.421e-05
6.03622e-05
5.79144e-05
5.32915e-05
5.79244e-05
4.69866e-05
0.00012398
0.000122029
0.000120007
0.000117691
0.00011534
0.000112907
0.000110417
0.000107969
0.000105591
0.000103267
0.000100973
9.86952e-05
9.6398e-05
9.4026e-05
9.154e-05
8.88936e-05
8.60392e-05
8.29432e-05
7.95693e-05
7.58926e-05
7.18983e-05
6.75899e-05
6.29794e-05
5.81267e-05
5.31372e-05
4.81298e-05
4.31963e-05
3.84078e-05
3.38294e-05
2.95166e-05
2.55173e-05
2.18804e-05
1.86538e-05
1.58978e-05
1.36666e-05
1.2319e-05
1.18765e-05
1.30778e-05
1.77552e-05
0.000111386
0.000113151
0.000115072
0.00011702
0.000118966
0.000120934
0.000122844
0.00012464
0.000126301
0.000127794
0.00012907
0.00013011
0.000130881
0.000131343
0.000131471
0.000131221
0.000130565
0.000129477
0.000127929
0.000125951
0.000123487
0.000120499
0.000117065
0.000113203
0.000108835
0.000103889
9.84123e-05
9.25917e-05
8.6694e-05
8.09544e-05
7.55115e-05
7.04476e-05
6.5806e-05
6.17525e-05
5.80158e-05
5.55698e-05
5.17711e-05
5.142e-05
5.08442e-05
0.000109587
0.000107839
0.000106042
0.000104009
0.000101947
9.98234e-05
9.76665e-05
9.55633e-05
9.35362e-05
9.15676e-05
8.96422e-05
8.77418e-05
8.58332e-05
8.38699e-05
8.18167e-05
7.96341e-05
7.72746e-05
7.47032e-05
7.18848e-05
6.87903e-05
6.5399e-05
6.16997e-05
5.76979e-05
5.34437e-05
4.9033e-05
4.457e-05
4.0136e-05
3.57956e-05
3.16073e-05
2.76261e-05
2.39003e-05
2.04778e-05
1.74077e-05
1.47469e-05
1.25537e-05
1.11603e-05
1.06599e-05
1.16805e-05
1.56768e-05
9.86357e-05
0.000100227
0.000101964
0.000103735
0.000105518
0.000107331
0.000109105
0.000110789
0.000112372
0.000113818
0.000115092
0.000116173
0.000117038
0.000117651
0.000117989
0.000118018
0.000117707
0.000117032
0.000115962
0.000114513
0.000112643
0.000110302
0.000107539
0.00010438
0.000100764
9.66209e-05
9.1983e-05
8.69929e-05
8.18593e-05
7.67815e-05
7.18935e-05
6.7287e-05
6.30084e-05
5.9211e-05
5.56953e-05
5.30558e-05
5.01239e-05
4.7178e-05
4.83165e-05
9.70282e-05
9.54602e-05
9.38605e-05
9.20699e-05
9.02533e-05
8.83939e-05
8.65152e-05
8.46997e-05
8.29607e-05
8.1283e-05
7.96518e-05
7.80535e-05
7.64565e-05
7.48228e-05
7.31195e-05
7.13075e-05
6.93481e-05
6.72081e-05
6.48501e-05
6.22436e-05
5.93651e-05
5.61961e-05
5.2733e-05
4.90159e-05
4.51269e-05
4.11607e-05
3.71853e-05
3.32612e-05
2.94405e-05
2.57751e-05
2.23118e-05
1.90964e-05
1.61782e-05
1.36108e-05
1.14558e-05
1.00227e-05
9.47152e-06
1.03592e-05
1.37958e-05
8.74756e-05
8.89083e-05
9.04789e-05
9.20893e-05
9.37162e-05
9.53814e-05
9.70213e-05
9.85928e-05
0.000100083
0.000101467
0.000102709
0.000103799
0.000104711
0.00010542
0.000105906
0.000106136
0.000106086
0.000105728
0.000105036
0.000104014
0.000102627
0.00010083
9.86361e-05
9.60816e-05
9.31146e-05
8.96729e-05
8.57731e-05
8.15235e-05
7.70838e-05
7.26218e-05
6.82599e-05
6.40928e-05
6.01701e-05
5.66193e-05
5.33295e-05
5.05822e-05
4.80484e-05
4.43867e-05
4.44383e-05
8.6035e-05
8.46326e-05
8.32041e-05
8.1623e-05
8.00184e-05
7.83838e-05
7.67412e-05
7.51636e-05
7.36621e-05
7.22223e-05
7.08331e-05
6.94801e-05
6.81357e-05
6.67642e-05
6.53389e-05
6.38277e-05
6.21942e-05
6.04068e-05
5.843e-05
5.62338e-05
5.37917e-05
5.10805e-05
4.80895e-05
4.48479e-05
4.14262e-05
3.79069e-05
3.43548e-05
3.08164e-05
2.73399e-05
2.39733e-05
2.07605e-05
1.77446e-05
1.49744e-05
1.24986e-05
1.03817e-05
8.914e-06
8.31938e-06
9.11231e-06
1.20968e-05
7.76818e-05
7.89715e-05
8.03902e-05
8.18538e-05
8.33359e-05
8.48619e-05
8.63719e-05
8.78292e-05
8.92254e-05
9.05344e-05
9.17305e-05
9.28026e-05
9.37306e-05
9.44952e-05
9.50752e-05
9.54489e-05
9.55901e-05
9.54746e-05
9.50781e-05
9.4392e-05
9.33985e-05
9.20459e-05
9.03293e-05
8.82882e-05
8.5883e-05
8.30512e-05
7.97981e-05
7.62037e-05
7.23908e-05
6.84946e-05
6.46273e-05
6.08783e-05
5.72998e-05
5.39975e-05
5.09112e-05
4.81725e-05
4.57188e-05
4.21056e-05
4.09044e-05
7.63903e-05
7.51347e-05
7.38571e-05
7.24583e-05
7.10375e-05
6.95945e-05
6.81541e-05
6.67778e-05
6.54735e-05
6.42305e-05
6.30381e-05
6.18826e-05
6.07402e-05
5.95832e-05
5.83853e-05
5.71165e-05
5.57471e-05
5.42482e-05
5.25876e-05
5.07331e-05
4.86591e-05
4.634e-05
4.37609e-05
4.09404e-05
3.79384e-05
3.48233e-05
3.16552e-05
2.84717e-05
2.53159e-05
2.22298e-05
1.92551e-05
1.64313e-05
1.38047e-05
1.14193e-05
9.33985e-06
7.84106e-06
7.20879e-06
7.94377e-06
1.05731e-05
6.90659e-05
7.02285e-05
7.15097e-05
7.28367e-05
7.41863e-05
7.55805e-05
7.69672e-05
7.83121e-05
7.96127e-05
8.08416e-05
8.19803e-05
8.30175e-05
8.39396e-05
8.47267e-05
8.53651e-05
8.58355e-05
8.61142e-05
8.618e-05
8.60098e-05
8.55888e-05
8.49089e-05
8.39226e-05
8.26053e-05
8.09999e-05
7.90717e-05
7.67624e-05
7.40688e-05
7.10496e-05
6.77981e-05
6.44197e-05
6.1012e-05
5.7658e-05
5.44106e-05
5.13522e-05
4.84569e-05
4.57896e-05
4.33181e-05
3.98974e-05
3.78858e-05
6.791e-05
6.67841e-05
6.56393e-05
6.44001e-05
6.31393e-05
6.18617e-05
6.05945e-05
5.93874e-05
5.82493e-05
5.71693e-05
5.61396e-05
5.51466e-05
5.41699e-05
5.31849e-05
5.21705e-05
5.11005e-05
4.99468e-05
4.86836e-05
4.72834e-05
4.5716e-05
4.39534e-05
4.19689e-05
3.97442e-05
3.72919e-05
3.46607e-05
3.19115e-05
2.90908e-05
2.62335e-05
2.3375e-05
2.05523e-05
1.78039e-05
1.51648e-05
1.2677e-05
1.03811e-05
8.33967e-06
6.81179e-06
6.14588e-06
6.8543e-06
9.21169e-06
6.14716e-05
6.25192e-05
6.36769e-05
6.48782e-05
6.61052e-05
6.73773e-05
6.8646e-05
6.98848e-05
7.10892e-05
7.22371e-05
7.33105e-05
7.43024e-05
7.52009e-05
7.59897e-05
7.66588e-05
7.71895e-05
7.75626e-05
7.7761e-05
7.77616e-05
7.75484e-05
7.71166e-05
7.64242e-05
7.54395e-05
7.41971e-05
7.26714e-05
7.08077e-05
6.85969e-05
6.60797e-05
6.33253e-05
6.04161e-05
5.74323e-05
5.44479e-05
5.15149e-05
4.86995e-05
4.59849e-05
4.34169e-05
4.09401e-05
3.7674e-05
3.52128e-05
6.04373e-05
5.94278e-05
5.84008e-05
5.73005e-05
5.61796e-05
5.50452e-05
5.39268e-05
5.28653e-05
5.18673e-05
5.09235e-05
5.00277e-05
4.91688e-05
4.83283e-05
4.74849e-05
4.6619e-05
4.571e-05
4.4733e-05
4.36658e-05
4.24805e-05
4.11508e-05
3.96509e-05
3.7953e-05
3.60352e-05
3.39059e-05
3.16029e-05
2.91787e-05
2.66721e-05
2.41116e-05
2.15269e-05
1.89506e-05
1.64157e-05
1.39535e-05
1.16013e-05
9.39437e-06
7.39109e-06
5.83418e-06
5.13612e-06
5.8471e-06
8.00432e-06
5.4766e-05
5.57087e-05
5.67552e-05
5.78415e-05
5.89559e-05
6.0115e-05
6.12731e-05
6.24114e-05
6.35215e-05
6.45881e-05
6.55932e-05
6.65326e-05
6.73947e-05
6.81698e-05
6.88465e-05
6.94103e-05
6.9847e-05
7.0138e-05
7.02663e-05
7.02132e-05
6.99767e-05
6.95177e-05
6.88048e-05
6.78618e-05
6.66725e-05
6.5187e-05
6.3389e-05
6.1307e-05
5.89901e-05
5.65007e-05
5.39051e-05
5.12656e-05
4.86261e-05
4.60486e-05
4.35131e-05
4.10558e-05
3.86066e-05
3.54633e-05
3.27619e-05
5.38389e-05
5.29343e-05
5.20131e-05
5.10342e-05
5.00362e-05
4.90281e-05
4.80372e-05
4.71002e-05
4.6221e-05
4.53921e-05
4.46086e-05
4.38604e-05
4.31315e-05
4.24047e-05
4.16624e-05
4.08857e-05
4.00537e-05
3.91461e-05
3.81395e-05
3.70089e-05
3.57291e-05
3.42744e-05
3.26211e-05
3.07724e-05
2.87589e-05
2.66237e-05
2.43992e-05
2.21088e-05
1.97765e-05
1.74301e-05
1.50972e-05
1.2805e-05
1.05859e-05
8.46865e-06
6.50466e-06
4.91677e-06
4.18366e-06
4.92518e-06
6.94111e-06
4.88338e-05
4.96833e-05
5.06272e-05
5.16099e-05
5.26205e-05
5.36741e-05
5.47308e-05
5.57726e-05
5.67933e-05
5.77791e-05
5.87152e-05
5.95974e-05
6.0418e-05
6.11674e-05
6.18369e-05
6.24152e-05
6.28889e-05
6.3243e-05
6.34629e-05
6.35302e-05
6.3443e-05
6.31685e-05
6.26739e-05
6.19789e-05
6.10676e-05
5.98968e-05
5.84486e-05
5.67407e-05
5.48063e-05
5.26906e-05
5.04457e-05
4.81242e-05
4.57631e-05
4.34097e-05
4.1055e-05
3.87111e-05
3.63187e-05
3.32941e-05
3.04746e-05
4.80025e-05
4.71928e-05
4.63666e-05
4.54931e-05
4.4604e-05
4.37071e-05
4.28271e-05
4.19973e-05
4.12199e-05
4.0489e-05
3.98003e-05
3.91447e-05
3.8509e-05
3.78777e-05
3.72371e-05
3.65697e-05
3.58574e-05
3.50824e-05
3.42239e-05
3.32596e-05
3.21661e-05
3.09176e-05
2.94913e-05
2.7886e-05
2.61254e-05
2.42471e-05
2.22758e-05
2.02305e-05
1.813e-05
1.59971e-05
1.38553e-05
1.17266e-05
9.63837e-06
7.61266e-06
5.69108e-06
4.06919e-06
3.29256e-06
4.09422e-06
6.01451e-06
4.35779e-05
4.43437e-05
4.51944e-05
4.60829e-05
4.69989e-05
4.79549e-05
4.89177e-05
4.98691e-05
5.08054e-05
5.17133e-05
5.25814e-05
5.34052e-05
5.4179e-05
5.48941e-05
5.55454e-05
5.61215e-05
5.66136e-05
5.70081e-05
5.72916e-05
5.7447e-05
5.74727e-05
5.73412e-05
5.70216e-05
5.65262e-05
5.58431e-05
5.49343e-05
5.37807e-05
5.23908e-05
5.07869e-05
4.90007e-05
4.70711e-05
4.5039e-05
4.29365e-05
4.07998e-05
3.86203e-05
3.63991e-05
3.40835e-05
3.11899e-05
2.83356e-05
4.28329e-05
4.21078e-05
4.13671e-05
4.05864e-05
3.97939e-05
3.89948e-05
3.82122e-05
3.74751e-05
3.67857e-05
3.61382e-05
3.55296e-05
3.49531e-05
3.43959e-05
3.38444e-05
3.32877e-05
3.27105e-05
3.20975e-05
3.14333e-05
3.06986e-05
2.98731e-05
2.89361e-05
2.78628e-05
2.66308e-05
2.52369e-05
2.36991e-05
2.20471e-05
2.03025e-05
1.84784e-05
1.65903e-05
1.46558e-05
1.26944e-05
1.07236e-05
8.76529e-06
6.83533e-06
4.96242e-06
3.30404e-06
2.46612e-06
3.36187e-06
5.21829e-06
3.89153e-05
3.96047e-05
4.03719e-05
4.1174e-05
4.20034e-05
4.28709e-05
4.37459e-05
4.46134e-05
4.54705e-05
4.63042e-05
4.71052e-05
4.78704e-05
4.85946e-05
4.92713e-05
4.9896e-05
5.04609e-05
5.09568e-05
5.13724e-05
5.16964e-05
5.19146e-05
5.20239e-05
5.20016e-05
5.182e-05
5.14846e-05
5.09859e-05
5.02921e-05
4.93842e-05
4.8263e-05
4.69427e-05
4.54442e-05
4.37948e-05
4.20262e-05
4.01616e-05
3.823e-05
3.62218e-05
3.41318e-05
3.19072e-05
2.91533e-05
2.63325e-05
3.82474e-05
3.75977e-05
3.6934e-05
3.62363e-05
3.55289e-05
3.48164e-05
3.41195e-05
3.34634e-05
3.28502e-05
3.22748e-05
3.17357e-05
3.1225e-05
3.07335e-05
3.02504e-05
2.97646e-05
2.9263e-05
2.87326e-05
2.81601e-05
2.75287e-05
2.682e-05
2.6015e-05
2.50914e-05
2.40263e-05
2.28144e-05
2.14712e-05
2.00197e-05
1.84773e-05
1.68534e-05
1.51594e-05
1.34095e-05
1.16185e-05
9.80092e-06
7.97272e-06
6.14446e-06
4.33075e-06
2.63869e-06
1.70563e-06
2.74016e-06
4.5464e-06
3.47733e-05
3.53942e-05
3.6085e-05
3.68091e-05
3.75592e-05
3.83453e-05
3.91396e-05
3.99293e-05
4.07119e-05
4.14752e-05
4.22121e-05
4.29198e-05
4.35938e-05
4.42296e-05
4.4823e-05
4.53678e-05
4.58562e-05
4.62793e-05
4.66277e-05
4.68888e-05
4.70578e-05
4.71171e-05
4.70411e-05
4.68316e-05
4.64807e-05
4.5962e-05
4.52562e-05
4.43608e-05
4.3282e-05
4.20323e-05
4.063e-05
3.90975e-05
3.74524e-05
3.5713e-05
3.38717e-05
3.19148e-05
2.97978e-05
2.71958e-05
2.44552e-05
3.41745e-05
3.35929e-05
3.29979e-05
3.23742e-05
3.17427e-05
3.1107e-05
3.04857e-05
2.9901e-05
2.93545e-05
2.88417e-05
2.83618e-05
2.79088e-05
2.74738e-05
2.70476e-05
2.66212e-05
2.61834e-05
2.5723e-05
2.52278e-05
2.4683e-05
2.40732e-05
2.33803e-05
2.25834e-05
2.16615e-05
2.06079e-05
1.94341e-05
1.81598e-05
1.67975e-05
1.5354e-05
1.38377e-05
1.22594e-05
1.06302e-05
8.9609e-06
7.26395e-06
5.54537e-06
3.8075e-06
2.10009e-06
1.01355e-06
2.24615e-06
3.99389e-06
3.10896e-05
3.16483e-05
3.227e-05
3.29234e-05
3.36014e-05
3.43128e-05
3.50333e-05
3.57512e-05
3.64642e-05
3.7162e-05
3.78379e-05
3.84898e-05
3.91142e-05
3.97073e-05
4.02659e-05
4.07855e-05
4.12594e-05
4.16805e-05
4.20401e-05
4.23269e-05
4.25359e-05
4.26543e-05
4.26587e-05
4.25464e-05
4.23123e-05
4.19337e-05
4.13933e-05
4.0685e-05
3.981e-05
3.87741e-05
3.75881e-05