/*--------------------------------*- C++ -*----------------------------------*\
| =========                 |                                                 |
| \\      /  F ield         | OpenFOAM: The Open Source CFD Toolbox           |
|  \\    /   O peration     | Version:  2312                                  |
|   \\  /    A nd           | Website:  www.openfoam.com                      |
|    \\/     M anipulation  |                                                 |
\*---------------------------------------------------------------------------*/
FoamFile
{
    version     2.0;
    format      ascii;
    arch        "LSB;label=32;scalar=64";
    class       volVectorField;
    location    "500";
    object      momentError;
}
// * * * * * * * * * * * * * * * * * * * * * * * * * * * * * * * * * * * * * //

dimensions      [0 1 -2 0 0 0 0];

internalField   nonuniform List<vector> 
10720
(
(0.000136183 -0.00045864 -4.16099e-15)
(0.000109344 -0.000498202 -2.46501e-15)
(6.50998e-05 -0.00050332 -2.15845e-14)
(3.10593e-06 -0.00048527 9.99157e-14)
(-3.97106e-05 -0.000472908 7.47325e-14)
(-8.01251e-05 -0.000448964 -1.8512e-13)
(-0.000121646 -0.000433108 -1.39562e-13)
(-0.000156133 -0.000408264 -1.07605e-13)
(-0.000186524 -0.000379424 2.1549e-14)
(-0.000210727 -0.000343596 5.47612e-15)
(-0.00022707 -0.000300635 -1.55953e-14)
(-0.000249108 -0.000286144 6.7376e-14)
(-0.000264787 -0.000268115 -2.19364e-13)
(-0.000280325 -0.000248822 -4.01236e-13)
(-0.00030723 -0.000238467 7.43286e-14)
(-0.000354823 -0.000239636 -1.06086e-13)
(-0.000416596 -0.000245402 1.15543e-13)
(-0.000559212 -0.000258558 8.86576e-13)
(-0.000393483 -0.000173233 2.34708e-13)
(-0.000600845 -0.000339964 -4.6666e-13)
(-0.00129226 -0.000473153 -2.31247e-13)
(0.00118622 0.000709305 9.58783e-14)
(0.00893909 0.00182714 3.38089e-13)
(0.0294859 0.00532017 -2.4725e-13)
(0.00979794 0.00351692 4.59152e-14)
(-0.0105841 8.10391e-06 -4.01601e-14)
(-0.0149561 -0.00265883 -6.94574e-14)
(-0.00701423 -0.00303858 1.3124e-14)
(-0.000577846 -0.0020217 1.00903e-14)
(0.00192723 -0.000836324 2.09895e-13)
(0.00242646 -0.000177912 1.55013e-13)
(0.00158062 -1.23486e-06 -1.77288e-13)
(0.0004463 -3.23981e-06 -1.33399e-13)
(0.000308035 -4.82233e-05 -2.39303e-13)
(0.000235075 6.67431e-05 -1.59706e-13)
(-0.000277996 0.00128432 1.54551e-13)
(0.00126679 0.0115174 -1.0865e-14)
(0.0532798 0.0720944 -5.80988e-16)
(1.09167 -0.120207 -6.35195e-14)
(0.000168054 -0.000426395 8.10906e-15)
(0.000175566 -0.000326925 -2.00082e-14)
(0.000188095 -0.000229827 2.29202e-14)
(0.000167689 -0.00012929 1.04293e-13)
(0.000145302 -5.75618e-05 3.60744e-14)
(5.84136e-05 6.01746e-05 -2.84893e-13)
(4.56111e-06 9.84776e-05 -1.55795e-13)
(-9.26859e-05 0.00017746 1.61066e-13)
(-0.000105919 9.4106e-05 -6.37558e-14)
(-5.58462e-05 1.97466e-05 5.91477e-14)
(-5.61317e-06 -4.07538e-05 -8.07544e-14)
(5.13258e-05 -6.47679e-05 -1.38034e-13)
(7.22991e-05 -6.29508e-05 3.60444e-14)
(8.23504e-05 -5.55056e-05 7.11213e-14)
(8.40031e-05 -4.63565e-05 -1.17393e-13)
(8.16962e-05 -3.80597e-05 -1.01456e-13)
(7.74578e-05 -3.10204e-05 -7.23975e-14)
(7.20817e-05 -2.52208e-05 -8.85835e-14)
(6.63864e-05 -2.06422e-05 -3.26375e-14)
(6.07794e-05 -1.7002e-05 -2.8342e-15)
(5.55392e-05 -1.43759e-05 3.10517e-14)
(5.096e-05 -1.2342e-05 6.26777e-14)
(4.72714e-05 -1.12858e-05 -2.99155e-14)
(4.58721e-05 -1.04512e-05 -2.12858e-14)
(4.62969e-05 -9.13123e-06 2.5818e-14)
(4.66969e-05 -7.46667e-06 -4.02068e-15)
(4.6933e-05 -5.83576e-06 -9.91161e-16)
(4.66813e-05 -5.26e-06 -2.05136e-15)
(4.57538e-05 -4.3434e-06 4.71598e-16)
(4.4035e-05 -3.8632e-06 1.09795e-16)
(4.32084e-05 -1.93026e-06 4.97801e-16)
(5.12846e-05 -7.46067e-07 -1.32948e-15)
(7.2559e-05 2.26433e-06 -2.52113e-15)
(6.85851e-05 3.04238e-06 -4.07236e-15)
(6.72897e-05 6.75808e-07 -5.36097e-15)
(7.5986e-05 -1.50897e-06 -2.3486e-15)
(0.000274597 1.12784e-05 1.28089e-14)
(0.000343555 -0.000167537 -3.38239e-15)
(0.00190218 -0.00152119 -5.83469e-14)
(0.000142917 -0.000421811 -3.87951e-15)
(0.00011274 -0.000454021 2.20513e-15)
(7.36463e-05 -0.000454119 -2.04595e-17)
(9.79444e-06 -0.000447008 -7.55924e-15)
(-3.55911e-05 -0.000430376 9.99727e-15)
(-7.2616e-05 -0.00041904 6.71981e-14)
(-0.000115358 -0.000406356 8.02704e-14)
(-0.000149143 -0.000384569 2.64619e-14)
(-0.000177602 -0.000358104 -8.61516e-14)
(-0.00020001 -0.000323551 -4.18874e-14)
(-0.00021558 -0.000288075 -2.56348e-13)
(-0.000218371 -0.000233613 -4.72141e-13)
(-0.000222403 -0.000192917 -2.36367e-14)
(-0.000222088 -0.000164998 -2.0703e-14)
(-0.000250132 -0.000126594 -8.27854e-14)
(-0.000283869 -9.04427e-05 8.65155e-14)
(-0.00026247 -7.71543e-05 3.88938e-13)
(-0.000243577 -0.000104491 -6.87352e-13)
(0.000334184 -0.00036073 -5.72202e-13)
(0.00570388 -0.00103241 -3.58389e-13)
(0.00179021 -0.000409863 2.15282e-13)
(-0.00246681 0.00205012 2.96315e-13)
(0.021052 0.00970494 -3.85725e-13)
(-0.0548395 -0.0028816 5.93563e-14)
(-0.10398 -0.0168126 -2.1027e-15)
(-0.0393738 -0.00955733 -1.16527e-14)
(0.012743 -0.00549318 -4.08203e-15)
(0.0377972 -0.0013069 1.23268e-14)
(0.0127635 -0.000655379 -2.74872e-14)
(-3.68153e-06 -0.00033734 -1.02249e-14)
(-0.000787059 5.02249e-05 9.33963e-15)
(0.000344955 0.000126776 -5.55289e-15)
(0.00100485 -0.000100529 -1.1472e-13)
(0.00100252 -0.000167518 -7.1923e-14)
(0.000583161 -3.83981e-05 1.60269e-13)
(-8.59622e-05 0.00037583 2.84536e-14)
(-0.000760856 0.00226014 6.35441e-14)
(-0.0316842 0.0143291 -1.17538e-14)
(-0.892466 0.108718 -3.26022e-14)
(0.00016953 -0.000384207 -1.63936e-14)
(0.0001944 -0.000311113 1.50207e-13)
(0.000206845 -0.000220375 -4.71479e-14)
(0.000203032 -0.000135682 -1.15848e-13)
(0.000177316 -5.31575e-05 8.28567e-14)
(0.00012685 2.42252e-05 6.6934e-14)
(7.61485e-05 7.01331e-05 2.90923e-14)
(1.2876e-05 9.35449e-05 1.54085e-13)
(-2.25758e-05 3.92946e-05 -2.99519e-15)
(-1.32998e-05 -1.44223e-05 -4.39993e-14)
(1.28653e-05 -5.3342e-05 7.29925e-14)
(4.57653e-05 -6.56315e-05 -9.49626e-14)
(6.46978e-05 -6.30767e-05 1.99597e-14)
(7.49189e-05 -5.5529e-05 1.04082e-14)
(7.85225e-05 -4.66572e-05 2.46884e-14)
(7.78309e-05 -3.83904e-05 2.76952e-14)
(7.49098e-05 -3.11239e-05 4.69668e-14)
(7.04342e-05 -2.50695e-05 -1.40527e-14)
(6.53877e-05 -2.02285e-05 3.03485e-15)
(6.01139e-05 -1.66286e-05 -7.01879e-15)
(5.51978e-05 -1.38633e-05 1.82707e-14)
(5.07297e-05 -1.20547e-05 5.30079e-14)
(4.731e-05 -1.09586e-05 -8.85937e-16)
(4.56847e-05 -1.08253e-05 -1.76477e-14)
(4.58982e-05 -9.78871e-06 -1.49692e-14)
(4.63122e-05 -8.26361e-06 2.14084e-14)
(4.67855e-05 -6.58493e-06 6.15474e-15)
(4.7275e-05 -4.76997e-06 -1.60835e-15)
(4.66718e-05 -2.91127e-06 4.65889e-17)
(4.57497e-05 -1.19059e-06 -1.0615e-16)
(4.80096e-05 -1.73223e-06 -1.99657e-16)
(4.99894e-05 4.63159e-07 -4.30386e-16)
(5.20417e-05 3.55862e-06 2.1761e-15)
(4.59606e-05 5.46487e-06 2.41733e-15)
(3.3481e-05 2.58007e-06 2.74982e-15)
(0.000126651 7.10858e-07 -7.42688e-15)
(0.000101713 -2.88961e-06 7.8573e-16)
(0.000173655 -2.99925e-06 1.33746e-14)
(0.00138449 0.000174346 1.57995e-14)
(0.000101016 -0.000375014 2.1028e-15)
(7.51171e-05 -0.000396836 -1.43486e-15)
(3.4205e-05 -0.000387044 -2.62746e-15)
(-2.42769e-05 -0.000384071 1.35792e-15)
(-6.06078e-05 -0.000369079 5.77425e-14)
(-9.52539e-05 -0.000362611 -6.42718e-14)
(-0.000129917 -0.000352447 -8.81762e-14)
(-0.000158595 -0.000335846 1.60614e-13)
(-0.000184006 -0.00031087 6.56113e-14)
(-0.000205074 -0.000279769 8.88352e-14)
(-0.000219204 -0.000245113 2.04932e-14)
(-0.00022985 -0.000212641 -7.66021e-16)
(-0.000238358 -0.000181739 3.55633e-13)
(-0.000252106 -0.000150701 1.20171e-14)
(-0.000248684 -0.000133127 2.16429e-13)
(-0.00022824 -0.000118168 1.204e-15)
(-0.000262346 -3.52941e-05 -6.83821e-13)
(-0.000362306 0.000181693 4.11916e-13)
(-0.000933057 0.00160369 9.19858e-13)
(-0.00565755 0.00389242 1.65784e-13)
(-0.00308464 -0.00134331 -2.66415e-14)
(-0.00227674 -0.00795442 -6.79527e-14)
(-0.0392995 -0.00924096 1.64963e-13)
(0.00066587 0.0022577 1.18986e-13)
(0.0558451 0.0169765 -9.77139e-14)
(0.0427665 0.00639673 -2.1843e-14)
(0.0597075 0.00265864 -5.6267e-14)
(0.00945205 0.000400315 3.08582e-14)
(-0.0229413 -0.00229354 -2.82457e-14)
(-0.000736138 -0.000736673 -1.56282e-13)
(-0.0012775 0.000674266 -7.8018e-15)
(0.000943811 0.000867341 2.3733e-13)
(0.000952762 0.000367678 3.59836e-14)
(0.00115301 7.50028e-05 1.12191e-13)
(0.000379501 0.000104176 1.33279e-13)
(-0.000631156 0.000402 2.20492e-14)
(-0.00251069 0.00140803 -8.48638e-14)
(-0.0161341 0.00213187 8.48952e-15)
(-0.112813 0.00973042 1.56886e-14)
(0.000131467 -0.000340155 2.43133e-14)
(0.000152363 -0.000281594 -3.70469e-14)
(0.000167593 -0.000204533 -4.65104e-14)
(0.000168699 -0.000136194 -1.31008e-14)
(0.000153652 -7.01291e-05 1.1287e-14)
(0.000125734 -1.21338e-05 -1.20767e-13)
(9.38778e-05 2.74783e-05 2.34736e-14)
(5.28319e-05 3.62431e-05 -1.49195e-13)
(2.42496e-05 4.55636e-06 -1.24959e-13)
(2.00253e-05 -2.72595e-05 -1.15753e-13)
(3.30553e-05 -5.00737e-05 1.18262e-13)
(5.12302e-05 -5.82529e-05 1.03766e-13)
(6.46842e-05 -5.70735e-05 -6.46438e-14)
(7.27505e-05 -5.15041e-05 -1.48448e-13)
(7.6025e-05 -4.44372e-05 4.05276e-14)
(7.57199e-05 -3.71492e-05 6.98167e-14)
(7.32719e-05 -3.04868e-05 -1.89662e-14)
(6.93318e-05 -2.47676e-05 -9.26358e-14)
(6.46709e-05 -2.01177e-05 -2.68353e-14)
(5.97224e-05 -1.65216e-05 2.52983e-15)
(5.49841e-05 -1.39674e-05 -2.0701e-14)
(5.06163e-05 -1.23932e-05 -4.13921e-14)
(4.71797e-05 -1.1844e-05 9.12868e-15)
(4.5394e-05 -1.17312e-05 -6.39723e-16)
(4.53088e-05 -1.07012e-05 2.87545e-15)
(4.55279e-05 -9.16035e-06 -9.68783e-15)
(4.56066e-05 -7.60118e-06 -1.78535e-14)
(4.57905e-05 -6.31742e-06 3.97403e-15)
(4.54454e-05 -4.93675e-06 7.53496e-16)
(4.46279e-05 -4.5926e-06 -1.71287e-16)
(4.51752e-05 -2.75233e-06 1.19202e-16)
(4.92866e-05 -2.72893e-06 4.71175e-16)
(6.03661e-05 -1.45995e-06 -7.5674e-16)
(5.57636e-05 4.57549e-06 -1.43223e-15)
(6.21759e-05 -1.17848e-05 6.41951e-16)
(0.000132884 -7.61801e-05 -1.15907e-15)
(0.000277335 -2.78557e-05 8.75201e-15)
(0.000201532 -1.57959e-05 8.12861e-15)
(0.00106822 0.000194144 -8.31854e-14)
(7.96682e-05 -0.000329611 1.05194e-14)
(5.35018e-05 -0.000351238 2.79073e-15)
(1.77533e-05 -0.00034285 1.07523e-15)
(-3.39799e-05 -0.00034511 -6.51954e-15)
(-6.4812e-05 -0.000334093 1.03419e-15)
(-9.62958e-05 -0.000331668 -1.45222e-14)
(-0.000127063 -0.000326429 1.04186e-13)
(-0.000152986 -0.000310376 3.08578e-14)
(-0.000175656 -0.000288333 -2.52686e-13)
(-0.000194474 -0.000261046 8.50905e-14)
(-0.00020663 -0.000229995 2.72085e-13)
(-0.000216415 -0.000200779 3.41576e-13)
(-0.00022409 -0.000172939 7.87849e-14)
(-0.000231832 -0.000148055 -3.85239e-13)
(-0.000236258 -0.000129144 -9.7881e-14)
(-0.000284416 -7.88656e-05 -9.9024e-14)
(-0.000326781 -5.04791e-05 -1.7903e-13)
(-0.000359851 -3.10206e-05 -3.62121e-13)
(-0.000561876 -0.000235702 -6.29136e-13)
(-0.000595298 -0.0020586 1.59049e-13)
(-0.000673022 -0.00143464 -1.26898e-13)
(0.00316089 0.00426964 -1.78373e-13)
(0.0120757 0.00663809 2.33593e-15)
(0.00783545 0.00394514 -2.523e-13)
(-0.00323313 -0.00276121 -4.63963e-14)
(-0.0011578 -0.00810801 4.39721e-14)
(-0.0627726 0.00144703 5.28101e-14)
(0.0236735 -2.45348e-05 -2.40924e-14)
(0.0768856 -0.0031717 3.3486e-14)
(-0.0274763 0.00674802 6.48574e-14)
(-0.00405693 -0.00135253 -5.63714e-14)
(-0.0165463 0.00152582 1.21428e-14)
(-0.00559082 0.000193703 1.77483e-13)
(-0.000329886 0.000310609 8.07667e-14)
(0.000266366 0.000297057 -3.26426e-14)
(-0.00075079 0.000521064 -1.08668e-13)
(-0.00169111 0.000935772 -2.72139e-14)
(-0.00656118 -6.73322e-05 -1.97177e-14)
(-0.0330646 0.00896044 5.50555e-14)
(0.000107299 -0.000299876 -1.7421e-15)
(0.000128392 -0.000253801 -3.89805e-14)
(0.000142569 -0.000190157 -3.45707e-14)
(0.000145009 -0.00013425 -2.81678e-14)
(0.000135294 -8.05191e-05 1.1397e-13)
(0.000117776 -3.41933e-05 2.05741e-13)
(9.3752e-05 -1.22964e-07 1.17493e-14)
(6.37753e-05 5.78939e-06 1.41483e-13)
(4.73751e-05 -1.51391e-05 5.36082e-16)
(4.10635e-05 -3.39885e-05 -3.11183e-14)
(4.68992e-05 -4.86381e-05 -9.01097e-14)
(5.62992e-05 -5.44972e-05 -2.98119e-14)
(6.49657e-05 -5.39719e-05 -1.54224e-14)
(7.08241e-05 -4.95242e-05 7.44051e-14)
(7.34911e-05 -4.33294e-05 -3.90149e-14)
(7.33696e-05 -3.66524e-05 -1.3229e-13)
(7.14104e-05 -3.03063e-05 -1.6807e-14)
(6.80046e-05 -2.4692e-05 8.63532e-14)
(6.3825e-05 -2.01512e-05 -2.61242e-15)
(5.92662e-05 -1.66055e-05 -2.43509e-14)
(5.4819e-05 -1.41004e-05 -6.56388e-14)
(5.06751e-05 -1.24709e-05 2.67982e-14)
(4.73545e-05 -1.18388e-05 3.5215e-14)
(4.55057e-05 -1.1636e-05 -6.07081e-15)
(4.51965e-05 -1.0742e-05 -2.76233e-15)
(4.53515e-05 -9.30779e-06 6.02178e-15)
(4.53976e-05 -7.81234e-06 8.65955e-15)
(4.55181e-05 -6.41741e-06 -2.03034e-15)
(4.51654e-05 -4.88797e-06 -7.4629e-16)
(4.45284e-05 -3.90308e-06 1.85034e-16)
(4.50998e-05 -2.72607e-06 -1.01408e-16)
(5.09616e-05 5.80742e-06 -1.65284e-16)
(6.51776e-05 2.61991e-05 6.50572e-17)
(2.18469e-05 -0.000110816 -2.61808e-16)
(-0.000655511 -0.00228315 -2.03303e-15)
(-0.000400359 -0.00182161 1.47241e-14)
(1.67992e-05 -0.0002532 -2.21199e-14)
(0.000298615 0.000688945 -5.5458e-14)
(0.000960889 0.000149129 -3.03442e-14)
(6.0389e-05 -0.000290734 -8.92766e-15)
(3.55489e-05 -0.00030784 4.8022e-15)
(2.36374e-06 -0.000302755 4.19009e-15)
(-4.30785e-05 -0.000307438 -1.73961e-14)
(-7.12692e-05 -0.000300141 -1.48377e-14)
(-9.89608e-05 -0.000300081 3.52274e-14)
(-0.000128289 -0.000295128 -1.29234e-14)
(-0.000152125 -0.000279339 1.36912e-14)
(-0.000173099 -0.000258911 -9.40593e-14)
(-0.000190354 -0.000233253 -2.87265e-13)
(-0.000201928 -0.000204429 -1.03063e-14)
(-0.000211679 -0.000176689 -1.25279e-13)
(-0.000219585 -0.000149561 -8.11744e-14)
(-0.000227433 -0.000123863 -1.43819e-14)
(-0.000238694 -9.70802e-05 -3.30097e-13)
(-0.000244344 -7.66872e-05 2.99776e-13)
(-0.000255994 -5.55234e-05 1.71946e-13)
(-0.000272348 -1.73393e-05 -3.86695e-13)
(-0.000381685 -8.61846e-06 1.22222e-13)
(-0.000444656 7.94327e-05 -2.00976e-13)
(-0.000428922 0.000212881 -1.39519e-13)
(-0.000657119 -7.00381e-05 2.51198e-13)
(0.000472327 0.000920981 6.09913e-15)
(-0.00384065 0.00133531 2.21506e-13)
(-0.00137829 0.000878802 1.01107e-13)
(-0.00487145 -0.003944 -2.0467e-14)
(0.0351904 -0.0129547 6.24796e-15)
(-0.014218 -0.00254758 2.47295e-14)
(-0.0335216 0.00154909 -3.01111e-14)
(0.00465003 0.00336389 -5.40633e-14)
(0.0124395 0.00493687 2.1832e-14)
(-0.0100479 -0.00177847 -5.27689e-14)
(-0.00558402 0.000130139 -4.00107e-14)
(-0.0050329 0.000286186 -1.49119e-13)
(-0.00180224 0.000389223 -2.39497e-13)
(-0.00193764 0.000566114 4.13592e-14)
(-0.00158076 0.000768836 -1.05424e-14)
(-0.0038048 -0.000489324 -9.3328e-15)
(-0.0195482 0.00918096 -1.94183e-14)
(8.25824e-05 -0.000264648 2.00439e-14)
(0.0001027 -0.000227352 3.82118e-14)
(0.00011623 -0.000175719 -5.04888e-14)
(0.000120925 -0.000129249 -1.94963e-14)
(0.00011599 -8.5457e-05 7.47185e-14)
(0.000105386 -4.70591e-05 -1.50772e-13)
(8.95642e-05 -2.10638e-05 -9.96701e-14)
(6.97212e-05 -1.69483e-05 2.05194e-13)
(5.8502e-05 -2.8562e-05 1.92426e-13)
(5.35801e-05 -3.91286e-05 -8.41546e-15)
(5.58996e-05 -4.75017e-05 -5.58726e-14)
(6.08422e-05 -5.08012e-05 -3.47737e-14)
(6.60643e-05 -4.99387e-05 1.17142e-13)
(6.99814e-05 -4.61828e-05 -5.81125e-14)
(7.18277e-05 -4.09246e-05 -1.3047e-14)
(7.15386e-05 -3.50908e-05 9.83205e-14)
(6.97806e-05 -2.95596e-05 -4.44031e-14)
(6.66942e-05 -2.44922e-05 4.07386e-14)
(6.29112e-05 -2.03037e-05 2.43684e-14)
(5.86717e-05 -1.69717e-05 4.24637e-15)
(5.44824e-05 -1.46633e-05 6.83438e-14)
(5.0538e-05 -1.3103e-05 -2.5625e-14)
(4.73144e-05 -1.2482e-05 -4.77241e-14)
(4.53717e-05 -1.21596e-05 -7.62213e-15)
(4.48761e-05 -1.12874e-05 1.90808e-14)
(4.49446e-05 -9.75697e-06 6.49145e-16)
(4.50186e-05 -8.04984e-06 9.25365e-15)
(4.51657e-05 -6.42437e-06 -1.7358e-15)
(4.48983e-05 -4.80389e-06 1.12327e-16)
(4.42629e-05 -4.27494e-06 -2.76172e-16)
(4.44123e-05 -4.98409e-06 -5.0718e-16)
(4.80935e-05 -1.2365e-05 4.14094e-17)
(5.41584e-05 -2.89273e-05 3.84552e-17)
(3.26744e-05 0.000238209 4.799e-16)
(0.000260727 0.00339552 -1.39368e-15)
(0.000182988 0.00262189 5.36371e-15)
(0.000237002 0.000295233 1.74678e-15)
(0.00030254 -0.000725161 -1.14588e-14)
(0.000787795 0.000261751 4.31188e-14)
(4.44829e-05 -0.000257559 2.18002e-15)
(2.27035e-05 -0.000271708 -4.30827e-16)
(-7.07455e-06 -0.000269236 2.42883e-15)
(-4.67084e-05 -0.00027746 -3.35114e-15)
(-7.22397e-05 -0.000273325 1.12899e-14)
(-9.78198e-05 -0.000274106 -1.49609e-15)
(-0.000125563 -0.000269859 -4.20213e-14)
(-0.00014788 -0.000254836 7.85323e-14)
(-0.000167284 -0.000236047 1.69725e-13)
(-0.000183095 -0.000212417 -1.05787e-13)
(-0.000193624 -0.000186087 -1.08078e-13)
(-0.000202309 -0.000160608 6.48635e-14)
(-0.000209713 -0.000135502 -1.49792e-13)
(-0.000216279 -0.00011126 -2.85e-14)
(-0.000224355 -8.69466e-05 -4.61248e-14)
(-0.000231705 -6.38477e-05 1.98241e-14)
(-0.000257543 -2.12863e-05 4.02798e-14)
(-0.000287741 1.97218e-05 4.46983e-13)
(-0.000351325 2.23224e-05 3.53054e-13)
(-0.000491402 9.30605e-05 -1.57619e-13)
(-0.000552802 0.000473468 2.26014e-13)
(-0.000436282 0.000981165 1.87448e-14)
(-0.0006746 0.00176786 -5.70832e-14)
(0.000822706 0.00315703 -1.18267e-13)
(0.00239208 0.00176288 9.30104e-15)
(0.00301417 -0.00196307 3.23151e-14)
(-0.000187276 -0.00491376 4.00187e-14)
(-0.0128549 -0.00267719 -3.78615e-14)
(-0.0068007 0.000733926 9.83878e-15)
(0.0294182 -0.00136074 7.59894e-14)
(-0.0136773 0.00366891 -2.97425e-14)
(0.00697989 -0.000567987 -1.67238e-13)
(-0.00185059 -0.000294004 -8.93905e-14)
(-0.0013413 -0.000267019 -6.14212e-14)
(-0.000927313 4.4819e-05 6.35078e-14)
(-0.00113644 -8.61619e-05 5.7292e-14)
(-0.00161067 0.000799801 5.81269e-14)
(-0.00371668 -0.000424478 6.38959e-14)
(-0.0163728 0.00965593 -1.02331e-15)
(6.4818e-05 -0.000235069 -9.13892e-15)
(8.25781e-05 -0.00020432 -1.05373e-14)
(9.55437e-05 -0.000161903 2.56521e-15)
(0.000101392 -0.000122793 3.37493e-14)
(9.97931e-05 -8.65483e-05 2.23685e-14)
(9.42102e-05 -5.52673e-05 -1.94163e-13)
(8.39624e-05 -3.56327e-05 -1.16773e-13)
(7.15598e-05 -3.19146e-05 -1.8451e-13)
(6.42462e-05 -3.73801e-05 2.24459e-14)
(6.0747e-05 -4.26723e-05 2.06536e-14)
(6.14697e-05 -4.6732e-05 -5.19207e-14)
(6.40529e-05 -4.80053e-05 4.96175e-15)
(6.7006e-05 -4.66191e-05 -2.45833e-14)
(6.93955e-05 -4.32658e-05 -4.58441e-14)
(7.04392e-05 -3.8781e-05 -1.42141e-13)
(6.9927e-05 -3.37038e-05 -1.19727e-14)
(6.82564e-05 -2.87623e-05 8.63151e-14)
(6.54517e-05 -2.41544e-05 -1.33704e-14)
(6.19955e-05 -2.02368e-05 1.66973e-14)
(5.80867e-05 -1.7057e-05 -3.05232e-14)
(5.4169e-05 -1.47445e-05 -4.6858e-14)
(5.04264e-05 -1.32106e-05 -4.23e-15)
(4.73265e-05 -1.24559e-05 1.76736e-14)
(4.53127e-05 -1.19834e-05 1.90788e-14)
(4.46453e-05 -1.10925e-05 -5.85358e-16)
(4.46132e-05 -9.68631e-06 -1.00548e-14)
(4.46841e-05 -7.9834e-06 -1.69473e-14)
(4.48428e-05 -6.39358e-06 3.28143e-15)
(4.46506e-05 -4.74344e-06 -1.92979e-16)
(4.4042e-05 -3.9704e-06 3.04067e-16)
(4.39906e-05 -2.79399e-06 4.82951e-16)
(4.76052e-05 1.14434e-06 -4.13998e-17)
(5.75761e-05 7.79647e-06 2.04938e-16)
(8.18175e-05 -5.86195e-05 -9.8819e-16)
(0.000431027 -0.0011172 3.27291e-16)
(0.000418338 -0.000886153 -1.44601e-14)
(0.000160707 3.29961e-05 2.26534e-14)
(9.55953e-05 0.000185193 5.78699e-14)
(0.00114134 -0.000498125 -2.15255e-14)
(3.02559e-05 -0.000228136 9.789e-16)
(1.10502e-05 -0.00024157 -2.75262e-16)
(-1.4406e-05 -0.0002408 6.46648e-16)
(-4.97244e-05 -0.000250825 3.38154e-15)
(-7.2853e-05 -0.000248374 -9.01463e-15)
(-9.68724e-05 -0.000249616 -1.90844e-14)
(-0.000123495 -0.000244778 4.55212e-14)
(-0.000144571 -0.000230603 -8.91915e-15)
(-0.00016294 -0.000212758 5.05045e-14)
(-0.000177761 -0.000190459 1.03017e-13)
(-0.000187593 -0.000165682 2.22672e-14)
(-0.000195796 -0.000141394 3.44753e-14)
(-0.000202734 -0.000117081 2.16523e-13)
(-0.000208673 -9.29483e-05 3.67192e-13)
(-0.000215555 -6.84863e-05 3.3283e-13)
(-0.000224149 -4.10291e-05 -5.40281e-15)
(-0.000232623 -1.5052e-05 4.05362e-13)
(-0.000252603 1.42087e-05 2.67815e-14)
(-0.00029806 4.13221e-05 -1.19161e-13)
(-0.000371333 0.000128548 1.57428e-13)
(-0.000385741 0.000342073 -2.60852e-13)
(-0.000382517 0.00061644 1.10134e-13)
(-1.61014e-05 0.00123646 1.10509e-13)
(0.00105962 0.00199439 4.48836e-14)
(0.00238706 0.0013061 1.20483e-13)
(0.00253889 -0.00107558 -4.94954e-14)
(0.000260334 -0.00287269 -4.27899e-14)
(-0.00173124 -0.00257403 6.3179e-15)
(-0.00286008 -0.000400488 2.63844e-14)
(-0.00221979 0.00162633 -7.03061e-14)
(0.00156798 0.00142777 -6.87095e-14)
(0.00278406 5.07727e-05 1.40186e-13)
(0.000647043 -0.000364736 3.15554e-14)
(9.93822e-05 -0.000395824 -6.0344e-14)
(0.00234818 -0.000528703 -4.98614e-16)
(0.0238004 -0.00740324 -1.43331e-13)
(-0.00729415 0.00312613 -5.09414e-14)
(-0.0034941 -0.000954035 -1.97426e-14)
(-0.0126822 0.00889514 -3.18945e-14)
(4.98314e-05 -0.000208429 -6.63897e-15)
(6.57729e-05 -0.000183617 -1.26862e-14)
(7.87204e-05 -0.00014813 6.04155e-15)
(8.54406e-05 -0.000115306 8.31815e-14)
(8.68027e-05 -8.5005e-05 3.54648e-14)
(8.34455e-05 -5.80188e-05 7.07804e-16)
(7.65572e-05 -4.32978e-05 1.82773e-13)
(7.04454e-05 -4.14505e-05 -8.38916e-14)
(6.63525e-05 -4.30624e-05 -1.35035e-13)
(6.43755e-05 -4.49759e-05 4.91428e-14)
(6.46351e-05 -4.60475e-05 9.80662e-14)
(6.59887e-05 -4.57268e-05 -2.41897e-14)
(6.7602e-05 -4.3732e-05 6.85658e-14)
(6.89137e-05 -4.05356e-05 9.30817e-15)
(6.93212e-05 -3.64972e-05 3.53117e-14)
(6.85602e-05 -3.20252e-05 1.24892e-14)
(6.69257e-05 -2.759e-05 -3.93438e-14)
(6.43156e-05 -2.34468e-05 3.24361e-14)
(6.11264e-05 -1.98299e-05 -2.44821e-14)
(5.75105e-05 -1.68687e-05 4.5014e-15)
(5.38495e-05 -1.46092e-05 6.51071e-14)
(5.03074e-05 -1.31015e-05 -2.25276e-14)
(4.73121e-05 -1.22571e-05 -3.04272e-14)
(4.52447e-05 -1.1695e-05 6.58053e-15)
(4.44031e-05 -1.08005e-05 -1.63339e-15)
(4.42619e-05 -9.46946e-06 2.98722e-15)
(4.42934e-05 -7.8056e-06 8.56718e-15)
(4.44795e-05 -6.10047e-06 -1.47177e-15)
(4.43654e-05 -4.41721e-06 -1.40859e-16)
(4.38555e-05 -3.52242e-06 1.95107e-16)
(4.38669e-05 -2.77579e-06 1.43996e-15)
(4.81591e-05 -1.61791e-06 1.80599e-16)
(5.89812e-05 9.89741e-07 -9.87206e-16)
(5.73239e-05 9.05252e-06 -1.77738e-16)
(5.54206e-05 3.23017e-05 -4.28345e-16)
(0.000124351 0.000102484 4.32499e-15)
(0.00011202 1.03095e-05 -8.98036e-15)
(0.000141674 -2.92926e-05 -1.4248e-14)
(0.000546201 0.000398584 -5.28112e-14)
(2.19458e-05 -0.000202352 2.71825e-15)
(4.15143e-06 -0.000215887 -3.0507e-15)
(-1.90948e-05 -0.000217338 -6.57157e-17)
(-5.06834e-05 -0.000227233 2.66493e-15)
(-7.214e-05 -0.000226478 -2.03479e-15)
(-9.49674e-05 -0.000226855 2.5447e-15)
(-0.00012019 -0.000222227 8.73274e-15)
(-0.000140125 -0.000208902 -1.0919e-13)
(-0.000157267 -0.000192168 -1.46972e-14)
(-0.000171251 -0.000171427 1.70477e-13)
(-0.000180301 -0.000148182 -7.21109e-14)
(-0.000187853 -0.000125434 -1.53075e-13)
(-0.000193969 -0.000102301 -2.98875e-13)
(-0.000199062 -7.91191e-05 -2.46504e-13)
(-0.000204537 -5.54024e-05 -1.6944e-13)
(-0.000210344 -2.9854e-05 -6.17305e-14)
(-0.000216294 -3.54644e-06 -2.26996e-13)
(-0.00023711 3.68064e-05 -3.15548e-13)
(-0.000275886 8.54602e-05 -1.3907e-13)
(-0.000326127 0.000191454 3.57507e-13)
(-0.000334637 0.000381771 3.28293e-13)
(-0.000295985 0.000597117 -2.15574e-14)
(-7.04588e-05 0.00100625 -5.04576e-14)
(0.000780697 0.00146404 -1.5941e-13)
(0.00189532 0.000808044 -9.28592e-14)
(0.00190339 -0.0010758 4.27683e-14)
(0.000498585 -0.00241061 3.30657e-14)
(-0.00150518 -0.00193241 3.72104e-15)
(-0.00240989 -0.000289308 -1.98413e-14)
(-0.00108973 0.000792541 7.40332e-14)
(-2.07621e-05 0.000744496 1.54705e-13)
(0.000947582 0.00011021 -1.04797e-14)
(0.000306341 -0.000285722 2.72344e-14)
(-0.000500749 -8.81756e-05 4.73938e-14)
(-0.000471392 0.00207623 -1.85017e-14)
(-0.0134363 0.00225426 1.74088e-13)
(-0.00248116 -0.00136735 7.94541e-14)
(-0.00175288 0.0002695 -6.40062e-14)
(-0.00743408 0.00790759 -1.89422e-14)
(3.83469e-05 -0.000185659 1.65633e-14)
(5.33834e-05 -0.000164783 2.03053e-14)
(6.53384e-05 -0.000135267 8.21888e-15)
(7.24615e-05 -0.000107603 9.76997e-14)
(7.53996e-05 -8.2033e-05 -1.73046e-13)
(7.42674e-05 -6.0104e-05 8.97389e-14)
(7.02279e-05 -4.87597e-05 1.5156e-13)
(6.79158e-05 -4.72107e-05 6.62418e-14)
(6.63322e-05 -4.6571e-05 -3.67947e-14)
(6.56684e-05 -4.61135e-05 -3.43623e-14)
(6.60246e-05 -4.52939e-05 2.17045e-14)
(6.68814e-05 -4.37392e-05 3.71884e-14)
(6.77469e-05 -4.12199e-05 -8.99177e-14)
(6.83763e-05 -3.80469e-05 6.45166e-14)
(6.8314e-05 -3.43509e-05 1.64818e-14)
(6.73624e-05 -3.03209e-05 -1.11059e-14)
(6.5716e-05 -2.63899e-05 -5.77501e-14)
(6.32606e-05 -2.26498e-05 -5.77494e-14)
(6.02854e-05 -1.93455e-05 4.89963e-14)
(5.69233e-05 -1.65806e-05 1.42858e-14)
(5.34845e-05 -1.44512e-05 4.90984e-15)
(5.01389e-05 -1.29503e-05 5.15996e-14)
(4.72321e-05 -1.20322e-05 2.09198e-14)
(4.51356e-05 -1.13454e-05 -2.44622e-15)
(4.4154e-05 -1.04775e-05 6.82627e-15)
(4.39044e-05 -9.20075e-06 -4.74812e-15)
(4.38927e-05 -7.62763e-06 -9.33757e-15)
(4.40965e-05 -5.89452e-06 1.37019e-15)
(4.40412e-05 -4.21886e-06 -1.20136e-15)
(4.3596e-05 -3.10794e-06 -4.10689e-16)
(4.35561e-05 -2.24514e-06 -1.0608e-15)
(4.76922e-05 -6.27436e-07 1.15087e-15)
(5.81408e-05 3.39719e-06 2.86153e-15)
(5.49678e-05 1.11354e-05 2.42067e-15)
(4.77574e-05 3.76607e-06 1.385e-15)
(8.98575e-05 1.43376e-07 -5.26336e-15)
(0.000147679 1.21289e-06 3.2097e-15)
(0.000161067 8.25156e-05 3.60456e-14)
(0.000162193 0.000577574 4.11092e-14)
(1.55591e-05 -0.000181455 7.45405e-16)
(-1.82533e-07 -0.000193153 1.78231e-15)
(-2.16039e-05 -0.0001959 -2.56843e-15)
(-5.01898e-05 -0.000206345 3.64684e-15)
(-7.08075e-05 -0.000205682 -7.18422e-15)
(-9.23747e-05 -0.000205802 1.08663e-14)
(-0.000116255 -0.000201377 -1.31811e-14)
(-0.000135084 -0.000188851 -2.47127e-14)
(-0.000151222 -0.000173229 -3.28609e-14)
(-0.000164353 -0.000153799 -4.65142e-14)
(-0.000172779 -0.000131977 1.86694e-14)
(-0.000179781 -0.000110351 1.77962e-13)
(-0.000185288 -8.8175e-05 2.41113e-13)
(-0.000189517 -6.5676e-05 3.87509e-14)
(-0.00019371 -4.24122e-05 4.91631e-15)
(-0.000197855 -1.72955e-05 1.13683e-14)
(-0.000202432 1.09119e-05 -4.05341e-14)
(-0.000211199 4.23201e-05 1.28419e-13)
(-0.00023656 9.07152e-05 1.17378e-13)
(-0.00026065 0.000182876 -2.70505e-13)
(-0.000249163 0.000334453 -2.75396e-14)
(-0.000187167 0.000511154 5.69529e-14)
(2.9168e-05 0.000797468 -7.35858e-14)
(0.000671742 0.0010518 7.80082e-14)
(0.00146127 0.000497419 1.13752e-15)
(0.00140674 -0.000957406 -1.45165e-14)
(9.6709e-05 -0.00197841 -4.25885e-14)
(-0.0014637 -0.00154944 1.75285e-15)
(-0.00189379 -0.000188093 -4.27386e-17)
(-0.00110645 0.000706446 3.50162e-14)
(-8.18164e-05 0.000581922 1.70216e-14)
(0.0004612 7.51572e-05 -7.45393e-14)
(0.000245688 -0.000260298 -3.4402e-14)
(-0.000405395 -0.000183543 1.72303e-13)
(-0.00149396 0.000370181 2.68267e-14)
(-0.00916151 0.00555502 -1.2764e-13)
(0.00705425 -0.00249501 -4.21441e-14)
(-0.0131697 0.00957243 5.05097e-14)
(-0.0035371 0.00651738 -1.6838e-15)
(3.04776e-05 -0.000166195 3.43912e-15)
(4.37544e-05 -0.000148372 -4.87419e-14)
(5.4621e-05 -0.000123727 2.41587e-14)
(6.1618e-05 -9.99664e-05 2.13205e-14)
(6.53694e-05 -7.83451e-05 4.61673e-14)
(6.63874e-05 -6.1166e-05 -1.54634e-14)
(6.51366e-05 -5.25122e-05 -3.71499e-14)
(6.50214e-05 -5.03472e-05 -3.78739e-15)
(6.5116e-05 -4.83734e-05 -2.62785e-15)
(6.55046e-05 -4.63607e-05 1.39789e-14)
(6.61694e-05 -4.43074e-05 4.0125e-14)
(6.69292e-05 -4.19018e-05 6.60048e-14)
(6.74472e-05 -3.89952e-05 -4.62634e-15)
(6.77216e-05 -3.57475e-05 -1.34747e-13)
(6.73498e-05 -3.22751e-05 2.62857e-14)
(6.62831e-05 -2.86232e-05 7.69864e-14)
(6.46308e-05 -2.5089e-05 5.91137e-14)
(6.22802e-05 -2.17196e-05 2.68665e-14)
(5.95009e-05 -1.87252e-05 -2.22931e-14)
(5.63557e-05 -1.61303e-05 -5.94895e-15)
(5.31284e-05 -1.4119e-05 -2.35505e-14)
(4.99542e-05 -1.26324e-05 -4.32073e-14)
(4.71459e-05 -1.16353e-05 1.77986e-14)
(4.5017e-05 -1.08517e-05 1.67718e-14)
(4.39229e-05 -9.96388e-06 2.99204e-15)
(4.35454e-05 -8.74516e-06 1.6989e-14)
(4.3484e-05 -7.21388e-06 5.94043e-15)
(4.36679e-05 -5.50702e-06 -1.00105e-15)
(4.36865e-05 -3.73873e-06 1.12608e-15)
(4.33077e-05 -2.48229e-06 4.59692e-16)
(4.32245e-05 -1.50635e-06 -1.28753e-15)
(4.72468e-05 -1.99726e-07 -1.52274e-15)
(5.76843e-05 2.83228e-06 -7.61895e-16)
(5.48457e-05 9.40014e-06 -4.20764e-16)
(4.62873e-05 8.76571e-06 2.7673e-15)
(9.20751e-05 1.31807e-05 -4.82084e-16)
(0.000146809 2.44065e-05 1.16825e-14)
(0.000181868 5.56932e-05 -1.28356e-14)
(0.000519579 0.000176967 -6.19248e-15)
(1.0635e-05 -0.000162556 3.83316e-15)
(-3.63783e-06 -0.000174307 -1.3807e-15)
(-2.28978e-05 -0.000177335 -2.60869e-15)
(-4.92094e-05 -0.000186791 -3.57703e-15)
(-6.87893e-05 -0.000186701 1.34918e-14)
(-8.9272e-05 -0.000186486 -1.8015e-14)
(-0.000111835 -0.000182235 -5.31755e-15)
(-0.000129557 -0.000170631 3.49406e-14)
(-0.000144646 -0.000156114 1.94607e-14)
(-0.000156927 -0.000137952 3.56097e-14)
(-0.000164746 -0.000117552 8.00848e-14)
(-0.000171155 -9.71003e-05 6.4642e-14)
(-0.000176002 -7.59525e-05 -1.52414e-13)
(-0.000179313 -5.43735e-05 -2.45574e-13)
(-0.000182403 -3.18388e-05 4.21371e-14)
(-0.000184706 -7.52024e-06 3.12379e-13)
(-0.000186362 1.89901e-05 6.40585e-14)
(-0.000190089 5.11314e-05 -1.77644e-13)
(-0.000206932 0.00010356 -3.3632e-14)
(-0.000216474 0.0001902 3.07008e-14)
(-0.000193731 0.000315471 -6.9081e-14)
(-0.000118328 0.000456782 -8.93602e-14)
(8.18044e-05 0.000656559 1.02186e-14)
(0.000572738 0.000786186 6.91388e-14)
(0.00115094 0.000309052 6.00082e-14)
(0.00109344 -0.000833077 -3.41399e-15)
(5.43317e-05 -0.00166641 3.58791e-14)
(-0.00117977 -0.00132216 6.43369e-15)
(-0.00144698 -0.000172051 6.16362e-14)
(-0.000738424 0.000577011 -4.5863e-14)
(2.1205e-05 0.000479739 -1.60004e-13)
(0.000315887 6.19875e-05 -5.10115e-14)
(0.000164527 -0.000221306 2.84612e-14)
(-0.000165262 -0.00018775 1.54502e-14)
(-0.00053756 5.53768e-05 -4.28704e-15)
(0.000385449 -0.000446946 5.12062e-15)
(-0.000948392 -0.000464937 1.82075e-14)
(-0.00188095 0.000705118 4.4823e-15)
(0.000790247 0.00336543 2.44301e-14)
(2.43107e-05 -0.00014916 -8.58974e-15)
(3.58704e-05 -0.000134425 -7.71767e-15)
(4.59243e-05 -0.000113236 -1.34544e-14)
(5.27993e-05 -9.27896e-05 -1.72126e-14)
(5.73205e-05 -7.47313e-05 2.98368e-14)
(5.96258e-05 -6.12196e-05 -4.30608e-14)
(6.04859e-05 -5.44285e-05 -1.7219e-14)