/*--------------------------------*- C++ -*----------------------------------*\
| =========                 |                                                 |
| \\      /  F ield         | OpenFOAM: The Open Source CFD Toolbox           |
|  \\    /   O peration     | Version:  2312                                  |
|   \\  /    A nd           | Website:  www.openfoam.com                      |
|    \\/     M anipulation  |                                                 |
\*---------------------------------------------------------------------------*/
FoamFile
{
    version     2.0;
    format      ascii;
    arch        "LSB;label=32;scalar=64";
    class       volScalarField;
    location    "500";
    object      p;
}
// * * * * * * * * * * * * * * * * * * * * * * * * * * * * * * * * * * * * * //

dimensions      [0 2 -2 0 0 0 0];

internalField   nonuniform List<scalar> 
10720
(
-62.2774
-133.564
-217.413
-300.05
-376.411
-454.199
-523.214
-581.158
-631.495
-670.881
-700.87
-722.955
-738.265
-747.525
-750.913
-747.779
-739.031
-723.619
-702.968
-677.139
-649.494
-623.086
-600.482
-573.519
-533.276
-482.196
-429.824
-384.229
-344.986
-308.07
-271.578
-235.417
-199.63
-163.848
-127.668
-90.057
-51.5567
-6.92146
26.0023
9.09011
74.1316
143.469
208.204
263.523
305.438
330.179
338.464
336.064
323.159
302.13
278.586
255.041
232.257
210.876
190.764
171.975
154.078
136.804
119.66
102.596
85.3011
67.8678
50.7082
35.6901
23.8542
14.1397
6.25849
0.395389
-3.48423
-5.62865
-6.1861
-5.23926
-2.79438
1.15715
6.969
15.2152
29.1388
52.8286
43.2076
-10.947
-71.6194
-136.059
-202.278
-270.053
-335.832
-397.536
-454.483
-504.915
-548.622
-585.611
-615.787
-639.149
-655.515
-664.58
-667.099
-662.954
-653.197
-638.375
-621.137
-603.842
-587.571
-565.16
-528.404
-479.355
-428.215
-383.16
-344.104
-307.266
-270.802
-234.678
-198.964
-163.277
-127.203
-89.6892
-51.2678
-6.61708
25.6928
91.938
138.389
184.723
229.415
268.801
300.267
320.675
329.369
327.941
317.251
300.068
279.871
258.609
237.222
216.418
196.444
177.43
159.196
141.542
124.14
106.891
89.5896
72.3167
55.4979
40.6058
28.5675
18.7001
10.5894
4.19932
-0.36997
-3.13133
-4.1793
-3.6174
-1.47842
2.23631
7.87125
15.9847
29.8297
52.5886
56.9863
8.32958
-46.4568
-106.947
-169.664
-233.946
-298.228
-359.851
-417.231
-469.369
-515.015
-553.613
-584.858
-608.941
-626.095
-636.739
-640.901
-638.643
-630.612
-617.533
-601.266
-583.842
-566.42
-544.536
-511.356
-467.255
-420.361
-377.832
-340.186
-304.373
-268.757
-233.279
-197.985
-162.55
-126.645
-89.2637
-50.9476
-6.3675
25.815
100.893
143.55
185.977
226.146
260.846
288.457
306.875
315.792
315.951
308.013
294.06
276.444
256.946
236.734
216.619
197.036
178.184
160.03
142.429
125.14
108.028
90.9527
73.9778
57.4855
42.6382
30.3397
20.2187
11.9202
5.43037
0.836547
-1.92468
-3.01119
-2.54092
-0.528115
3.05787
8.57931
16.6045
30.3151
52.1924
79.594
38.8055
-7.7907
-59.0333
-112.832
-169.118
-226.226
-282.398
-336.307
-386.798
-432.75
-473.434
-508.384
-537.45
-560.509
-577.683
-588.522
-592.982
-591.376
-584.32
-573.1
-559.263
-543.645
-523.379
-493.539
-454.075
-411.203
-371.127
-334.897
-300.2
-265.574
-230.922
-196.303
-161.407
-125.893
-88.7834
-50.6485
-6.26817
26.0208
116.128
151.215
186.409
220.361
250.079
274.299
291.207
300.32
301.883
296.36
285.347
270.587
253.541
235.309
216.68
198.137
179.955
162.218
144.872
127.769
110.811
93.9228
77.1753
60.9277
46.1394
33.6603
23.3229
14.8041
8.05989
3.15223
0.0249145
-1.42648
-1.27784
0.476059
3.87002
9.25563
17.1821
30.7195
51.7479
85.7195
49.4035
7.72136
-38.451
-87.06
-138.517
-191.448
-244.241
-295.888
-345.229
-391.119
-432.748
-469.437
-500.687
-526.199
-545.661
-558.825
-565.694
-566.507
-561.886
-552.848
-540.681
-526.029
-506.852
-479.34
-443.143
-403.151
-364.861
-329.683
-295.864
-262.078
-228.184
-194.222
-159.895
-124.871
-88.1841
-50.3573
-6.31016
26.0846
118.33
149.48
180.809
211.03
237.501
259.35
275.182
284.416
287.082
283.599
275.12
262.958
248.257
231.977
214.87
197.442
180.031
162.814
145.826
129.008
112.304
95.6857
79.2364
63.2881
48.6327
36.0437
25.5127
16.7827
9.81511
4.67768
1.34382
-0.272077
-0.251952
1.39388
4.69343
9.99217
17.8266
31.1547
51.2948
89.5113
57.3591
20.2621
-20.799
-64.0395
-110.16
-157.878
-205.915
-253.531
-299.668
-343.358
-383.832
-420.354
-452.325
-479.319
-500.961
-517.129
-527.629
-532.467
-532.005
-526.919
-518.103
-505.96
-489.016
-464.365
-431.582
-394.624
-358.369
-324.447
-291.579
-258.611
-225.422
-192.08
-158.306
-123.77
-87.5319
-50.0955
-6.52347
25.9701
118.385
145.862
173.697
200.747
224.57
244.522
259.472
268.741
272.236
270.374
263.999
254.125
241.647
227.364
211.951
195.886
179.524
163.091
146.691
130.336
114.02
97.757
81.6483
66.0091
51.5146
38.8679
28.1812
19.2746
12.1146
6.76542
3.21293
1.37376
1.1709
2.60101
5.70604
10.8364
18.5157
31.5748
50.8021
89.4308
60.4131
26.8446
-10.345
-49.4311
-91.3475
-134.958
-179.141
-223.403
-266.805
-308.508
-347.826
-384.011
-416.414
-444.516
-467.868
-486.059
-498.825
-506.016
-507.912
-505.056
-498.152
-487.519
-472.15
-449.867
-420.169
-386.115
-351.902
-319.271
-287.374
-255.233
-222.734
-189.964
-156.698
-122.652
-86.902
-49.9262
-6.94547
25.6512
115.516
140.261
165.456
190.042
211.779
230.21
244.408
253.628
257.737
257.143
252.491
244.574
234.096
221.701
207.968
193.32
178.098
162.559
146.851
131.047
115.19
99.334
83.6017
68.2943
53.9977
41.3505
30.5493
21.4893
14.1479
8.5886
4.81189
2.75286
2.34638
3.59791
6.55395
11.5585
19.1122
31.8977
50.235
87.7508
61.4113
30.8774
-2.92
-38.3452
-76.4569
-116.208
-156.624
-197.38
-237.677
-276.791
-314.149
-349.061
-380.891
-409.08
-433.118
-452.541
-467.112
-476.628
-481.153
-480.987
-476.56
-468.032
-454.673
-434.886
-408.209
-377.017
-344.909
-313.678
-282.848
-251.627
-219.903
-187.775
-155.05
-121.495
-86.2547
-49.831
-7.56008
25.0761
111.464
133.91
156.893
179.43
199.432
216.602
230.124
239.226
243.784
244.17
240.906
234.633
225.911
215.255
203.144
189.936
175.942
161.417
146.533
131.404
116.113
100.75
85.4543
70.5176
56.4643
43.8773
33.0104
23.831
16.3346
10.587
6.60463
4.33847
3.73152
4.79307
7.57579
12.4189
19.8024
32.2467
49.6659
84.855
60.7367
32.745
1.78465
-30.5652
-65.4273
-101.856
-138.97
-176.589
-214.019
-250.652
-286.028
-319.524
-350.543
-378.537
-402.968
-423.343
-439.293
-450.533
-456.959
-458.735
-456.155
-449.311
-437.682
-420.103
-396.152
-367.642
-337.609
-307.817
-278.096
-247.827
-216.917
-185.47
-153.331
-120.295
-85.5729
-49.7476
-8.27259
24.2259
106.6
127.152
148.297
169.117
187.655
203.756
216.661
225.598
230.47
231.611
229.46
224.553
217.344
208.248
197.652
185.847
173.101
159.649
145.668
131.294
116.644
101.833
87.0186
72.4848
58.7111
46.2342
35.345
26.0757
18.4448
12.5229
8.34103
5.86747
5.05713
5.92717
8.5372
13.2195
20.4288
32.5138
49.0372
81.3072
59.0955
33.2983
4.80048
-24.8806
-56.8926
-90.3558
-124.476
-159.174
-193.839
-227.975
-261.214
-293.005
-322.826
-350.152
-374.442
-395.19
-411.987
-424.529
-432.604
-436.215
-435.491
-430.421
-420.607
-405.198
-383.84
-357.915
-329.961
-301.666
-273.105
-243.828
-213.767
-183.037
-151.517
-119.038
-84.8608
-49.6474
-9.0252
23.1501
101.368
120.304
139.88
159.228
176.509
191.676
204.014
212.753
217.831
219.549
218.287
214.505
208.587
200.865
191.655
181.184
169.672
157.322
144.303
130.758
116.821
102.628
88.3477
74.2592
60.8091
48.4975
37.6373
28.3162
20.5797
14.5058
10.1404
7.47035
6.46213
7.13934
9.56893
14.0744
21.0835
32.7618
48.3781
77.374
56.8082
32.9125
6.55017
-20.8107
-50.3309
-81.1838
-112.646
-144.699
-176.814
-208.586
-239.733
-269.772
-298.249
-324.689
-348.579
-369.411
-386.751
-400.239
-409.584
-414.648
-415.458
-411.945
-403.792
-390.381
-371.413
-347.928
-322.017
-295.249
-267.886
-239.636
-210.459
-180.479
-149.612
-117.723
-84.1268
-49.5261
-9.82714
21.9143
95.9806
113.528
131.747
149.817
166.003
180.341
192.148
200.671
205.871
208.026
207.471
204.614
199.785
193.261
185.297
176.067
165.743
154.492
142.463
129.794
116.625
103.103
89.4025
75.7963
62.7097
50.6122
39.8283
30.4917
22.6765
16.4709
11.9355
9.07556
7.87188
8.35539
10.6011
14.9219
21.7165
32.9616
47.6835
73.2591
54.136
31.9113
7.42733
-17.8967
-45.2152
-73.7456
-102.821
-132.473
-162.231
-191.767
-220.867
-249.119
-276.14
-301.501
-324.726
-345.332
-362.874
-376.96
-387.274
-393.554
-395.731
-393.678
-387.12
-375.597
-358.861
-337.686
-313.778
-288.564
-262.44
-235.252
-206.994
-177.801
-147.62
-116.356
-83.3795
-49.402
-10.6943
20.5451
90.5949
106.929
123.959
140.902
156.125
169.714
181.02
189.316
194.572
197.053
197.061
194.961
191.049
185.558
178.7
170.606
161.403
151.224
140.19
128.425
116.066
103.261
90.183
77.0988
64.4163
52.5815
41.923
32.6112
24.7487
18.4362
13.7489
10.711
9.31818
9.6084
11.665
15.7885
22.3474
33.1259
46.9584
69.0919
51.2417
30.4979
7.67767
-15.8448
-41.2081
-67.6689
-94.6027
-122.081
-149.687
-177.141
-204.295
-230.794
-256.32
-280.502
-302.906
-323.08
-340.584
-355.002
-366.008
-373.245
-376.563
-375.798
-370.702
-360.919
-346.242
-327.235
-305.273
-281.625
-256.77
-230.677
-203.372
-175
-145.541
-114.934
-82.6184
-49.2965
-11.6273
19.0481
85.3006
100.57
116.542
132.481
146.845
159.753
170.585
178.646
183.909
186.629
187.082
185.601
182.456
177.853
171.967
164.898
156.738
147.584
137.53
126.679
115.155
103.099
90.6794
78.1532
65.9132
54.3859
43.8999
34.6529
26.7748
20.3806
15.5601
12.3559
10.7802
10.8781
12.7418
16.6583
22.9644
33.2504
46.2052
64.9586
48.2425
28.8225
7.48883
-14.4269
-38.0428
-62.6499
-87.6563
-113.167
-138.804
-164.328
-189.643
-214.447
-238.477
-261.419
-282.888
-302.457
-319.714
-334.23
-345.677
-353.65
-357.923
-358.297
-354.539
-346.363
-333.586
-316.61
-296.527
-274.443
-250.881
-225.91
-199.59
-172.074
-143.371
-113.458
-81.8402
-49.2168
-12.6231
17.438
80.1609
94.4801
109.508
124.542
138.134
150.414
160.795
168.62
173.852
176.744
177.546
176.57
174.066
170.22
165.184
159.031
151.827
143.64
134.533
124.587
113.908
102.624
90.8922
78.9563
67.1944
56.0171
45.749
36.6078
28.748
22.2996
17.367
14.0111
12.2608
12.1687
13.836
17.5347
23.5695
33.3388
45.428
60.915
45.2191
26.9901
6.99428
-13.4806
-35.5271
-58.4632
-81.7325
-105.457
-129.29
-153.034
-176.627
-199.816
-222.386
-244.07
-264.53
-283.381
-300.232
-314.666
-326.346
-334.853
-339.894
-341.247
-338.687
-331.974
-320.937
-305.851
-287.569
-267.034
-244.781
-220.955
-195.648
-169.021
-141.111
-111.926
-81.0433
-49.1581
-13.6792
15.7274
75.2127
88.6772
102.852
117.067
129.954
141.654
151.61
159.193
164.368
167.375
168.452
167.886
165.918
162.718
158.419
153.08
146.743
139.454
131.25
122.186
112.349
101.848
90.8245
79.505
68.2526
57.4641
47.457
38.4622
30.655
24.181
19.1587
15.6668
13.7513
13.4728
14.9408
18.4122
24.1588
33.3914
44.6304
56.9981
42.2272
25.0768
6.29286
-12.8823
-33.5088
-54.9329
-76.6288
-98.7287
-120.913
-143.017
-165.007
-186.667
-207.826
-228.26
-247.674
-265.724
-282.049
-296.25
-307.983
-316.849
-322.491
-324.672
-323.173
-317.781
-308.332
-294.997
-278.429
-259.418
-238.481
-215.817
-191.549
-165.842
-138.758
-110.338
-80.2275
-49.1175
-14.7888
13.9225
70.4769
83.1679
96.5657
110.033
122.275
133.434
142.987
150.33
155.424
158.504
159.794
159.562
158.04
155.388
151.727
147.105
141.55
135.086
127.73
119.515
110.504
100.786
90.4823
79.7999
69.0854
58.7202
49.0139
40.2048
32.4851
26.0151
20.9274
17.317
15.2474
14.787
16.054
19.2888
24.7311
33.4109
43.8165
53.2329
39.3037
23.136
5.45695
-12.5394
-31.8749
-51.9266
-72.1908
-92.8093
-113.488
-134.082
-154.58
-174.803
-194.611
-213.823
-232.182
-249.382
-265.095
-278.946
-290.589
-299.654
-305.747
-308.611
-308.034
-303.822
-295.811
-284.089
-269.143
-251.617
-231.993
-210.505
-187.296
-162.538
-136.314
-108.693
-79.3923
-49.0925
-15.9441
12.0296
65.9641
77.9518
90.638
103.418
115.064
125.718
134.887
141.991
146.987
150.108
151.56
151.598
150.449
148.262
145.152
141.16
136.303
130.591
124.024
116.615
108.404
99.4584
89.8773
79.8456
69.6907
59.7793
50.4102
41.8244
34.2269
27.7913
22.6631
18.9532
16.7418
16.1058
17.1705
20.1608
25.2843
33.399
42.9903
49.6334
36.4744
21.2097
4.53941
-12.3787
-30.5385
-49.3363
-68.2953
-87.5595
-106.856
-126.06
-145.177
-164.054
-182.583
-200.613
-217.924
-234.249
-249.289
-262.698
-274.137
-283.265
-289.672
-293.086
-293.299
-290.128
-283.411
-273.167
-259.744
-243.656
-225.333
-205.026
-182.893
-159.11
-133.777
-106.992
-78.5363
-49.0823
-17.136
10.0599
61.6782
73.0211
85.052
97.1971
108.29
118.471
127.273
134.141
139.029
142.163
143.737
143.995
143.155
141.363
138.728
135.285
131.049
126.017
120.177
113.525
106.08
97.8877
89.024
79.6494
70.0705
60.6379
51.6383
43.3111
35.8698
29.4991
24.3564
20.5674
18.2279
17.4237
18.2862
21.025
25.8166
33.3586
42.1566
46.2065
33.7572
19.3228
3.58268
-12.3493
-29.4292
-47.0793
-64.8416
-82.8663
-100.894
-118.816
-136.654
-154.275
-171.595
-188.493
-204.778
-220.221
-234.551
-247.452
-258.599
-267.675
-274.278
-278.119
-278.992
-276.73
-271.168
-262.269
-250.269
-235.562
-218.52
-199.391
-178.347
-155.561
-131.15
-105.232
-77.6585
-49.0852
-18.3557
8.02527
57.6186
68.3672
79.7919
91.3486
101.925
111.659
120.113
126.749
131.52
134.644
136.309
136.744
136.162
134.705
132.478
129.516
125.829
121.408
116.233
110.284
103.564
96.0982
87.9384
79.221
70.2293
61.2955
52.6929
44.6564
37.4037
31.128
25.9975
22.1507
19.698
18.7345
19.3959
21.8776
26.3265
33.2919
41.32
42.9559
31.1631
17.4963
2.61468
-12.4081
-28.4955
-45.0888
-61.7535
-78.6384
-95.4993
-112.238
-128.891
-145.34
-161.522
-177.342
-192.636
-207.202
-220.805
-233.152
-243.94
-252.869
-259.564
-263.72
-265.136
-263.656
-259.116
-251.435
-240.754
-227.363
-211.572
-193.615
-173.666
-151.897
-128.433
-103.416
-76.7568
-49.0981
-19.5947
5.93877
53.7812
63.98
74.8417
85.8504
95.9417
105.254
113.376
119.783
124.431
127.531
129.261
129.837
129.47
128.298
126.423
123.879
120.676
116.802
112.229
106.93
100.89
94.1172
86.6414
78.5741
70.1736
61.7527
53.5701
45.8529
38.8192
32.6682
27.5765
23.6939
21.1441
20.0315
20.4944
22.7151
26.8126
33.2018
40.4847
39.8808
28.6977
15.7442
1.65874
-12.5244
-27.6944
-43.3136
-58.9664
-74.8009
-90.5855
-106.234
-121.787
-137.147
-152.263
-167.059
-181.401
-195.11
-207.978
-219.741
-230.12
-238.827
-245.525
-249.897
-251.747
-250.931
-247.287
-240.701
-231.235
-219.09
-204.512
-187.713
-168.861
-148.121
-125.629
-101.542
-75.829
-49.1168
-20.8434
3.81471
50.1613
59.8483
70.1847
80.6807
90.3167
99.2307
107.034
113.22
117.741
120.803
122.575
123.265
123.077
122.147
120.574
118.394
115.617
112.23
108.202
103.496
98.0893
91.972
85.1545
77.7235
69.9122
62.0129
54.2683
46.8951
40.1084
34.1102
29.0837
25.188
22.5582
21.3077
21.576
23.5336
27.2735
33.0911
39.6555
36.9792
26.3642
14.0747
0.730601
-12.6734
-26.9935
-41.7107
-56.4288
-71.2913
-86.0821
-100.722
-115.258
-129.603
-143.721
-157.554
-170.984
-183.861
-195.999
-207.163
-217.097
-225.525
-232.151
-236.652
-238.837
-238.577
-235.712
-230.102
-221.748
-210.774
-197.364
-181.702
-163.941
-144.242
-122.742
-99.6111
-74.8732
-49.1367
-22.0917
1.668
46.7511
55.9604
65.8048
75.8196
85.0266
93.5634
101.062
107.031
111.423
114.438
116.236
117.016
116.978
116.253
114.94
113.077
110.675
107.72
104.18
100.015
95.1925
89.6896
83.4995
76.6858
69.4566
62.0823
54.7882
47.7792
41.2642
35.4453
30.5097
26.6235
23.9317
22.5557
22.635
24.3292
27.7079
32.9623
38.8369
34.2472
24.1626
12.4943
-0.157588
-12.8383
-26.3669
-40.2473
-54.0986
-68.0623
-81.9317
-95.6374
-109.229
-122.63
-135.816
-148.742
-161.307
-173.382
-184.806
-195.365
-204.829
-212.936
-219.426
-223.982
-226.417
-226.612
-224.415
-219.669
-212.327
-202.446
-190.154
-175.6
-158.921
-140.266
-119.775
-97.6247
-73.8868
-49.1524
-23.3304
-0.487268
43.5421
52.3056
61.688
71.249
80.0514
88.23
95.4371
101.195
105.456
108.417
110.228
111.079
111.164
110.616
109.526
107.939
105.865
103.292
100.189
96.5142
92.2277
87.2967
81.6998
75.4799
68.82
61.9682
55.1323
48.5029
42.2811
36.6658
31.8454
27.9914
25.256
23.7679
23.6654
25.098
28.1148
32.818
38.033
31.6796
22.092
11.0059
-0.997918
-13.0032
-25.7947
-38.8959
-51.9422
-65.0708
-78.0872
-90.9263
-103.642
-116.164
-128.478
-140.551
-152.297
-163.606
-174.334
-184.293
-193.273
-201.03
-207.334
-211.88
-214.489
-215.048
-213.419
-209.433
-203.005
-194.138
-182.907
-169.428
-153.815
-136.205
-116.734
-95.5834
-72.8675
-49.1576
-24.5488
-2.63556
40.5266
48.871
57.819
66.9524
75.3718
83.2091
90.1363
95.6891
99.8214
102.721
104.534
105.44
105.629
105.23
104.334
102.987
101.2
98.9657
96.2528
93.0188
89.2209
84.8188
79.7787
74.1248
68.0169
61.6802
55.3046
49.0664
43.1553
37.7648
33.0827
29.2828
26.5224
24.9364
24.6608
25.8359
28.4931
32.6606
37.2477
29.2699
20.1501
9.61086
-1.78499
-13.1579
-25.2607
-37.6345
-49.9307
-62.2832
-74.5064
-86.5404
-98.4404
-110.145
-121.647
-132.92
-143.893
-154.472
-164.528
-173.897
-182.387
-189.776
-195.853
-200.337
-203.053
-203.898
-202.744
-199.422
-193.813
-185.88
-175.652
-163.206
-148.639
-132.067
-113.623
-93.4891
-71.8119
-49.1458
-25.7365
-4.76194
37.6958
45.6463
54.1841
62.9125
70.9687
78.4811
85.1403
90.495
94.499
97.3346
99.1403
100.089
100.364
100.092
99.3637
98.2248
96.6906
94.7544
92.3878
89.5499
86.1956
82.279
77.7577
72.64
67.0625
61.2294
55.3118
49.4708
43.8841
38.7372
34.2141
30.4891
27.7225
26.0536
25.6151
26.539
28.8419
32.4924
36.4844
27.0125
18.3333
8.30894
-2.51538
-13.2952
-24.753
-36.4466
-48.0426
-59.6716
-71.1559
-82.4416
-93.5827
-104.526
-115.269
-125.793
-136.038
-145.923
-155.336
-164.13
-172.133
-179.14
-184.962
-189.342
-192.108
-193.168
-192.408
-189.657
-184.78
-177.701
-168.414
-156.96
-143.41
-127.866
-110.45
-91.3424
-70.7186
-49.1093
-26.883
-6.85117
35.0413
42.62
50.7699
59.1141
66.8257
74.0286
80.4301
85.5935
89.471
92.2397
94.0315
95.0114
95.3588
95.1957
94.6121
93.6548
92.3416
90.6682
88.6094
86.1257
83.1722
79.6992
75.6581
71.044
65.9731
60.6276
55.1614
49.7195
44.4667
39.5785
35.233
31.6026
28.8483
27.1118
26.5221
27.2033
29.16
32.315
35.7463
24.9009
16.637
7.09916
-3.18689
-13.4092
-24.2613
-35.3177
-46.2591
-57.2122
-68.0072
-78.5956
-89.0304
-99.2642
-109.299
-119.122
-128.682
-137.91
-146.709
-154.947
-162.47
-169.092
-174.636
-178.878
-181.646
-182.86
-182.421
-180.162
-175.932
-169.631
-161.219
-150.709
-138.146
-123.613
-107.221
-89.1474
-69.5839
-49.0414
-27.9792
-8.888
32.5541
39.7816
47.5641
55.5441
62.9273
69.8353
75.9894
80.9673
84.7208
87.4211
89.1937
90.1963
90.6032
90.5335
90.0757
89.277
88.1576
86.7159
84.9295
82.7618
80.1685
77.0992
73.5002
69.3566
64.7652
59.8882
54.8622
49.8175
44.9039
40.286
36.134
32.6162
29.892
28.1036
27.3756
27.8247
29.4465
32.1299
35.0357
22.9282
15.0576
5.97876
-3.79841
-13.4964
-23.7787
-34.2366
-44.5654
-54.8859
-65.0375
-74.9752
-84.752
-94.3236
-103.697
-112.865
-121.782
-130.39
-138.604
-146.307
-153.361
-159.598
-164.852
-168.929
-171.66
-172.977
-172.795
-170.953
-167.292
-161.695
-154.095
-144.478
-132.866
-119.322
-103.946
-86.9053
-68.4062
-48.9354
-29.0144
-10.8586
30.2257
37.1207
44.5551
52.1883
59.259
65.8856
71.8021
76.6008
80.2328
82.8638
84.6134
85.6317
86.0884
86.0987
85.7499
85.0897
84.1401
82.9023
81.357
79.4703
77.2
74.4964
71.3027
67.5953
63.4548
59.0245
54.4247
49.7705
45.1978
40.8584
36.9132
33.5238
30.8464
29.0221
28.1699
28.3996
29.7002
31.9384
34.3543
21.0878
13.5895
4.94553
-4.35048
-13.5541
-23.3
-33.1948
-42.9484
-52.6764
-62.2264
-71.5556
-80.7181
-89.6728
-98.4287
-106.983
-115.297
-123.322
-130.982
-138.173
-144.772
-150.627
-155.585
-159.476
-162.141
-163.517
-163.535
-162.044
-158.881
-153.917
-147.066
-138.29
-127.589
-115.007
-100.633
-84.62
-67.183
-48.7821
-29.98
-12.7497
28.0482
34.6277
41.7313
49.0344
55.807
62.1647
67.8534
72.4787
75.9923
78.5539
80.2773
81.3056
81.8034
81.8829
81.6284
81.0894
80.2889
79.2305
77.8981
76.2612
74.2802
71.9061
69.0815
65.7768
62.0576
58.05
53.8594
49.5863
45.3522
41.2958
37.5672
34.3204
31.7054
29.8607
28.8992
28.9241
29.9203
31.7409
33.7033
19.3733
12.2279
3.9964
-4.84423
-13.5807
-22.8202
-32.185
-41.3976
-50.5698
-59.556
-68.3168
-76.9048
-85.2833
-93.4626
-101.443
-109.192
-116.668
-123.804
-130.508
-136.669
-142.151
-146.811
-150.503
-153.075
-154.475
-154.645
-153.447
-150.717
-146.32
-140.155
-132.166
-122.334
-110.684
-97.2896
-82.2954
-65.9126
-48.5764
-30.8662
-14.5487
26.0134
32.2931
39.0824
46.071
52.559
58.6593
64.1294
68.5873
71.9856
74.478
76.1729
77.2067
77.7381
77.8773
77.7053
77.2723
76.6028
75.7021
74.5576
73.1423
71.4191
69.3412
66.8517
63.9166
60.5889
56.9788
53.1777
49.2729
45.3718
41.5998
38.0951
35.0019
32.4636
30.6136
29.5586
29.3949
30.1052
31.5377
33.0829
17.778
10.9678
3.12773
-5.28095
-13.5757
-22.337
-31.2019
-39.9056
-48.5555
-57.0132
-65.2415
-73.2925
-81.1324
-88.7728
-96.2168
-103.437
-110.398
-117.039
-123.28
-129.021
-134.14
-138.505
-141.989
-144.45
-145.845
-146.126
-145.169
-142.815
-138.922
-133.384
-126.128
-117.118
-106.366
-93.9281
-79.9353
-64.594
-48.3112
-31.6658
-16.2449
24.1136
30.1085
36.5981
43.2868
49.5028
55.3569
60.6167
64.9138
68.2001
70.624
72.2884
73.3237
73.8831
74.0733
73.9734
73.6333
73.0788
72.317
71.3383
70.1191
68.6254
66.813
64.6264
62.029
59.063
55.8242
52.3914
48.8396
45.2629
41.7731
38.4961
35.5658
33.1166
31.2757
30.1434
29.8086
30.2539
31.3286
32.4928
16.2958
9.80412
2.33605
-5.66273
-13.5394
-21.8482
-30.2411
-38.4657
-46.6246
-54.5858
-62.3155
-69.8635
-77.1997
-84.3361
-91.2788
-98.0041
-104.481
-110.657
-116.46
-121.801
-126.569
-130.645
-133.916
-136.252
-137.618
-137.977
-137.217
-135.185
-131.741
-126.771
-120.195
-111.962
-102.068
-90.5573
-77.5445
-63.227
-47.9808
-32.3712
-17.8286
22.3414
28.0653
34.2694
40.6713
46.6276
52.2458
57.3036
61.4455
64.6229
66.9795
68.6125
69.6463
70.2285
70.4626
70.4255
70.167
69.7134
69.074
68.2416
67.1956
65.9058
64.3305
62.4169
60.1267
57.493
54.5989
51.5119
48.2958
45.0321
41.8196
38.7717
36.0107
33.6613
31.843
30.6496
30.1623
30.365
31.1129
31.932
14.9203
8.73171
1.61761
-5.99178
-13.4721
-21.3525
-29.2993
-37.0716
-44.7682
-52.2629
-59.525
-66.6022
-73.467
-80.1329
-86.6065
-92.8684
-98.8912
-104.63
-110.02
-114.981
-119.413
-123.206
-126.263
-128.467
-129.785
-130.194
-129.592
-127.836
-124.789
-120.335
-114.385
-106.881
-97.8051
-87.1877
-75.1284
-61.8107
-47.5807
-32.9762
-19.2906
20.6897
26.1554
32.087
38.215
43.9226
49.3148
54.1789
58.1708
61.2431
63.5334
65.1341
66.1635
66.7642
67.0364
67.0541
66.8672
66.5025
65.9704
65.267
64.3742
63.265
61.9012
60.2327
58.2208
55.891
53.315
50.5508
47.6516
44.6874
41.7446
38.9241
36.3363
34.0956
32.3124
31.0739
30.4533
30.437
30.8896
31.3986
13.6455
7.74567
0.968578
-6.27055
-13.3747
-20.8494
-28.3739
-35.7195
-42.9801
-50.0362
-56.8591
-63.4949
-69.9185
-76.1441
-82.1796
-88.0082
-93.6064
-98.9351
-103.935
-108.535
-112.647
-116.168
-119.013
-121.078
-122.336
-122.773
-122.297
-120.776
-118.078
-114.089
-108.716
-101.893
-93.5909
-83.8297
-72.6925
-60.3471
-47.1066
-33.4753
-20.6245
19.1517
24.3712
30.0425
35.9086
41.3783
46.5539
51.2313
55.079
58.0494
60.2746
61.8425
62.8656
63.4809
63.7858
63.8516
63.7275
63.4408
63.0036
62.4134
61.6558
60.7065
59.5307
58.0814
56.3208
54.2679
51.9842
49.519
46.9168
44.2369
41.554
38.9569
36.5441
34.4188
32.6819
31.4138
30.6796
30.4686
30.6572
30.8903
12.4658
6.84107
0.385123
-6.50172
-13.2488
-20.3386
-27.4636
-34.4058
-41.2555
-47.8986
-54.3088
-60.5309
-66.5414
-72.355
-77.9805
-83.4039
-88.6047
-93.5485
-98.1825
-102.443
-106.249
-109.509
-112.147
-114.071
-115.26
-115.705
-115.329
-114.008
-111.617
-108.046
-103.201
-97.0107
-89.4389
-80.4937
-70.2429
-58.8371
-46.5566
-33.8651
-21.8242
17.7207
22.7053
28.1279
33.7433
38.9851
43.9529
48.4511
52.1598
55.0314
57.1929
58.728
59.7426
60.3698
60.7028
60.8106
60.7415
60.5235
60.1696
59.6791
59.0405
58.2323
57.2234
55.9699
54.4351
52.6333
50.6168
48.4271
46.1013
43.6892
41.2547
38.8747
36.6362
34.6312
32.9505
31.6675
30.8394
30.4583
30.4141
30.4042
11.3755
6.01324
-0.136617
-6.68799
-13.0957
-19.8202
-26.5665
-33.1275
-39.5896
-45.8436
-51.866
-57.6996
-63.323
-68.7512
-73.9936
-79.0382
-83.8673
-88.4507
-92.7412
-96.6814
-100.198
-103.21
-105.647
-107.43
-108.543
-108.984
-108.685
-107.533
-105.412
-102.216
-97.8522
-92.2486
-85.3613
-77.1893
-67.7863
-57.2833
-45.9292
-34.1423
-22.886
16.3906
21.1508
26.3356
31.7112
36.7345
41.5028
45.8286
49.4031
52.1793
54.2787
55.7808
56.7858
57.4217
57.7786
57.9231
57.9024
57.7449
57.464
57.0612
56.5273
55.8436
54.9822
53.9031
52.571
50.9956
49.2221
47.2851
45.215
43.0533
40.8539
38.6831
36.6163
34.7346
33.1186
31.8343
30.9315
30.405
30.1581
29.937
10.3693
5.25755
-0.600396
-6.83224
-12.9173
-19.295
-25.6825
-31.8828
-37.9785
-43.866
-49.5235
-54.9926
-60.2531
-65.3204
-70.2046
-74.8953
-79.3771
-83.6235
-87.5922
-91.232
-94.4765
-97.2517
-99.4961
-101.141
-102.175
-102.6
-102.36
-101.351
-99.4666
-96.6059
-92.6807
-87.6176
-81.3692
-73.9262
-65.3286
-55.689
-45.2239
-34.3059
-23.8073
15.1554
19.7011
24.6584
29.8042
34.6182
39.1948
43.3549
46.8001
49.4838
51.5224
52.9915
53.9857
54.6282
55.0055
55.1818
55.2036
55.099
54.8823
54.5565
54.1145
53.5404
52.8094
51.885
50.734
49.3624
47.8087
46.1021
44.2672
42.338
40.3596
38.3883
36.489
34.7318
33.1873
31.9142
30.9553
30.3074
29.8873
29.485
9.44216
4.56959
-1.00987
-6.93706
-12.7153
-18.7635
-24.8107
-30.6696
-36.4189
-41.9611
-47.2754
-52.402
-57.3225
-62.0521
-66.6013
-70.9611
-75.1187
-79.0503
-82.7181
-86.0759
-89.0646
-91.6166
-93.6773
-95.1883
-96.1405
-96.5437
-96.3474
-95.4597
-93.782
-91.2216
-87.6941
-83.1278
-77.4728
-70.7131
-62.8771
-54.0583
-44.4423
-34.3554
-24.5869
14.0092
18.3501
23.0893
28.015
32.6282
37.0209
41.0212
44.3419
46.9361
48.9156
50.3516
51.3339
51.9806
52.3752
52.5792
52.6382
52.58
52.4195
52.1612
51.7997
51.322
50.7058
49.9183
48.9286
47.7398
46.3844
44.8868
43.2667
41.552
39.7798
37.9974
36.2596
34.6265
33.159
31.9083
30.9107
30.1647
29.5993
29.0443
8.58911
3.94487
-1.36856
-7.0053
-12.4917
-18.2265
-23.9509
-29.4864
-34.9089
-40.1251
-45.1165
-49.9213
-54.5228
-58.9365
-63.1725
-67.2233
-71.0783
-74.716
-78.1029
-81.1971
-83.9456
-86.2878
-88.1744
-89.5565
-90.4283
-90.8037
-90.6397
-89.8544
-88.3582
-86.0659
-82.8983
-78.787
-73.6808
-67.5586
-60.4384
-52.3955
-43.5865
-34.2925
-25.2257
12.9467
17.0916
21.6221
26.3366
30.7573
34.9731
38.8198
42.0202
44.5278
46.4496
47.8527
48.8222
49.4712
49.8802
50.1081
50.1995
50.1819
50.0706
49.8714
49.5804
49.187
48.6718
48.0054
47.1588
46.1332
44.9558
43.6469
42.2222
40.7041
39.1229
37.5177
35.9344
34.4236
33.0369
31.8184
30.7983
29.9761
29.2921
28.6111
7.80544
3.37944
-1.68008
-7.03976
-12.2482
-17.6852
-23.1031
-28.3325
-33.4457
-38.3545
-43.0416
-47.5443
-51.8469
-55.9646
-59.9078
-63.6704
-67.243
-70.6068
-73.7316
-76.58
-79.1039
-81.2495
-82.9723
-84.2316
-85.0249
-85.369
-85.2284
-84.5299
-83.193
-81.1399
-78.2976
-74.6012
-70.0005
-64.4703
-58.019
-50.706
-42.6601
-34.1196
-25.7253
11.9627
15.9202
20.2507
24.7627
28.9985
33.0444
36.7431
39.8273
42.251
44.1163
45.4868
46.4426
47.0923
47.5131
47.7615
47.881
47.8989
47.8305
47.6827
47.4534
47.1338
46.7071
46.1473
45.4274
44.5469
43.5287
42.3895
41.1415
39.8026
38.3972
36.9571
35.5203
34.1286
32.8252
31.6472
30.6193
29.7414
28.9635
28.1813
7.08668
2.86924
-1.94769
-7.04309
-11.9871
-17.1408
-22.2676
-27.2071
-32.0278
-36.6465
-41.0473
-45.266
-49.288
-53.1288
-56.7984
-60.2918
-63.6012
-66.7098
-69.5907
-72.2099
-74.5248
-76.4866
-78.0562
-79.1994
-79.9171
-80.2286
-80.1043
-79.4795
-78.2825
-76.4427
-73.8938
-70.5751
-66.4379
-61.4545
-55.6257
-48.9956
-41.6677
-33.8406
-26.0887
11.0523
14.8303
18.9694
23.287
27.3452
31.2276
34.7837
37.7558
40.0983
41.9085
43.2465
44.1879
44.8365
45.2668
45.5327
45.6764
45.725
45.694
45.5911
45.4154
45.1601
44.8109
44.3445
43.7366
42.9849
42.1083
41.1208
40.0319
38.8554
37.6107
36.3235
35.0245
33.7478
32.5289
31.3981
30.3755
29.4605
28.6117
27.7511
6.42852
2.41054
-2.17466
-7.01789
-11.7099
-16.5943
-21.4447
-26.1094
-30.6536
-34.9985
-39.1297
-43.0813
-46.8405
-50.4218
-53.8359
-57.0783
-60.1423
-63.0135
-65.6675
-68.0739
-70.1942
-71.9848
-73.4116
-74.4462
-75.0921
-75.3704
-75.2573
-74.6954
-73.6214
-71.972
-69.6873
-66.7113
-62.9978
-58.5173
-53.2645
-47.2702
-40.6148
-33.4604
-26.3207
10.2108
13.8169
17.7723
21.9036
25.7911
29.5163
32.935
35.7988
38.0623
39.8186
41.1243
42.0506
42.6969
43.1343
43.4149
43.5795
43.6547
43.6561
43.592
43.4629
43.2635
42.9817
42.5972
42.0877
41.4498
40.699
39.8467
38.9002
37.8701
36.7716
35.625
34.4546
33.288
32.1533
31.0753
30.0692
29.1341
28.2351
27.3169
5.82698
1.9996
-2.364
-6.96672
-11.4185
-16.0468
-20.6349
-25.0392
-29.3217
-33.4081
-37.2853
-40.9862
-44.4987
-47.8374
-51.0126
-54.0209
-56.8568
-59.5072
-61.9503
-64.1592
-66.0989
-67.731
-69.0251
-69.9585
-70.5368
-70.7825
-70.6768
-70.1692
-69.2036
-67.7241
-65.677
-63.0113
-59.6834
-55.6636
-50.9414
-45.536
-39.5075
-32.9853
-26.4267
9.43372
12.8753
16.6545
20.6068
24.3305
27.9044
31.1905
33.9494
36.1364
37.8401
39.1137
40.0241
40.6666
41.1093
41.402
41.5843
41.6823
41.7117
41.6811
41.5923
41.4414
41.2182
40.9051
40.4818
39.9441
39.3045
38.5721
37.7526
36.8538
35.8875
34.8693
33.8184
32.7561
31.7047
30.6834
29.7035
28.7629
27.8324
26.8755
5.27814
1.63309
-2.51881
-6.8919
-11.1151
-15.4996
-19.8384
-23.9958
-28.031
-31.8735
-35.5116
-38.9766
-42.258
-45.3695
-48.3217
-51.1118
-53.7353
-56.1806
-58.4284
-60.454
-62.2267
-63.7121
-64.8837
-65.7234
-66.2387
-66.4532
-66.3521
-65.8916
-65.0219
-63.6941
-61.8604
-59.475
-56.4971
-52.8975
-48.6617
-43.7993
-38.3527
-32.4219
-26.4132
8.71684
12.0008
15.611
19.3915
22.9576
26.3857
29.5439
32.2016
34.3142
35.9663
37.208
38.1019
38.7394
39.1855
39.488
39.6852
39.8027
39.8559
39.8541
39.8
39.6908
39.5184
39.2674
38.9196
38.4697
37.9279
37.3016
36.5948
35.8133
34.9659
34.0644
33.1235
32.1596
31.1894
30.2275
29.2815
28.3484
27.4028
26.4239
4.77833
1.30769
-2.6419
-6.79579
-10.8012
-14.9536
-19.0559
-22.9793
-26.7805
-30.3928
-33.8055
-37.049
-40.1136
-43.0128
-45.7569
-48.3437
-50.7698
-53.0247
-55.0913
-56.9476
-58.5661
-59.9161
-60.9748
-61.7281
-62.1853
-62.3705
-62.2724
-61.8528
-61.0682
-59.8758
-58.2337
-56.1008
-53.4398
-50.2221
-46.4305
-42.0665
-37.1575
-31.7778
-26.2875
8.05615
11.189
14.6372
18.2526
21.6673
24.9551
27.9898
30.5494
32.5897
34.1913
35.4011
36.2779