/*--------------------------------*- C++ -*----------------------------------*\
| =========                 |                                                 |
| \\      /  F ield         | OpenFOAM: The Open Source CFD Toolbox           |
|  \\    /   O peration     | Version:  2312                                  |
|   \\  /    A nd           | Website:  www.openfoam.com                      |
|    \\/     M anipulation  |                                                 |
\*---------------------------------------------------------------------------*/
FoamFile
{
    version     2.0;
    format      ascii;
    arch        "LSB;label=32;scalar=64";
    class       surfaceScalarField;
    location    "500";
    object      phi;
}
// * * * * * * * * * * * * * * * * * * * * * * * * * * * * * * * * * * * * * //

dimensions      [0 3 -1 0 0 0 0];

oriented        oriented;

internalField   nonuniform List<scalar> 
21254
(
-0.233801
0.253398
-0.0195977
0.275396
-0.0219979
0.294333
-0.0189371
0.311247
-0.0169133
0.327222
-0.015975
0.33995
-0.012728
0.349933
-0.0099836
0.357923
-0.00798974
0.362951
-0.00502833
0.366014
-0.00306313
0.367163
-0.00114821
0.365845
0.00131776
0.362193
0.00365179
0.356027
0.00616604
0.346947
0.00907995
0.334842
0.0121052
0.318931
0.0159104
0.29853
0.0204018
0.272472
0.026058
0.240007
0.0324647
0.200645
0.0393616
0.157728
0.0429176
0.119277
0.0384507
0.0951236
0.0241534
0.0901517
0.00497178
0.0996682
-0.00951639
0.113625
-0.0139566
0.126094
-0.0124691
0.13514
-0.00904574
0.140758
-0.00561783
0.14351
-0.00275233
0.143545
-3.48399e-05
0.140727
0.00281827
0.135164
0.00556288
0.126583
0.00858082
0.113963
0.0126208
0.0954352
0.0185276
0.0671586
0.0282775
0.0662159
0.000954506
-0.210717
-0.0230842
-0.186778
-0.0239385
-0.157389
-0.0293888
-0.125183
-0.0322062
-0.0912716
-0.0339114
-0.0563295
-0.0349421
-0.02195
-0.0343795
0.00991947
-0.0318695
0.0388802
-0.0289608
0.0644585
-0.0255783
0.0864119
-0.0219534
0.105104
-0.0186924
0.120826
-0.0157218
0.133921
-0.0130947
0.145106
-0.0111857
0.154705
-0.00959878
0.163194
-0.00848858
0.170803
-0.00760946
0.177842
-0.00703908
0.18443
-0.00658806
0.190736
-0.00630548
0.196743
-0.00600706
0.202376
-0.00563326
0.206984
-0.00460735
0.210386
-0.00340196
0.212907
-0.00252161
0.214604
-0.0016971
0.215706
-0.00110135
0.216351
-0.000645558
0.216533
-0.000182098
0.216037
0.000496207
0.214777
0.00126043
0.212751
0.00202562
0.209999
0.0027519
0.206437
0.00356214
0.201731
0.004706
0.194917
0.0068135
0.181097
0.0138199
0.161217
0.01988
-0.213179
0.234686
-0.0411051
0.256711
-0.0440221
0.279735
-0.0419613
0.301247
-0.0384253
0.322289
-0.0370167
0.341872
-0.0323117
0.359598
-0.0277094
0.37575
-0.0241419
0.389959
-0.0192375
0.402305
-0.0154085
0.413023
-0.0118664
0.422562
-0.00822135
0.431262
-0.00504837
0.439174
-0.00174565
0.446088
0.00216542
0.451567
0.00662633
0.455276
0.0122014
0.456854
0.0188243
0.454948
0.0279638
0.44838
0.0390326
0.434681
0.0530609
0.412248
0.0653502
0.380917
0.0697824
0.345672
0.0593981
0.313009
0.0376348
0.284836
0.0186563
0.260927
0.00995313
0.241396
0.00706141
0.226476
0.00587386
0.215535
0.00532337
0.206717
0.00606576
0.198436
0.00824679
0.189746
0.011508
0.179894
0.0154147
0.168133
0.0203419
0.15294
0.027814
0.133145
0.0383228
0.0994048
0.0620186
0.0714179
0.0289487
-0.191219
-0.045044
-0.167719
-0.0474382
-0.140206
-0.0569023
-0.111101
-0.0613115
-0.0801854
-0.0648267
-0.0478567
-0.0672708
-0.0156149
-0.0666214
0.015208
-0.0626923
0.043362
-0.0571148
0.0684117
-0.0506279
0.0901894
-0.0437311
0.109073
-0.0375761
0.125518
-0.0321668
0.139747
-0.0273235
0.152209
-0.0236481
0.163208
-0.0205973
0.173036
-0.0183166
0.182001
-0.0165746
0.19036
-0.0153981
0.198224
-0.0144518
0.205756
-0.0138375
0.213027
-0.0132781
0.219969
-0.0125752
0.226123
-0.0107621
0.231218
-0.00849675
0.235442
-0.00674569
0.238699
-0.00495396
0.240897
-0.00329933
0.241988
-0.00173615
0.242078
-0.000272052
0.241392
0.00118205
0.240115
0.00253715
0.238266
0.00387471
0.235842
0.00517594
0.232765
0.00663861
0.22874
0.00873087
0.223785
0.0117687
0.21344
0.0241649
0.19539
0.0379301
-0.206942
0.228639
-0.0628026
0.250487
-0.0658697
0.274075
-0.0655497
0.295637
-0.0599876
0.316131
-0.0575105
0.335727
-0.0519077
0.353127
-0.0451089
0.368721
-0.0397363
0.382062
-0.0325782
0.393413
-0.0267596
0.402736
-0.0211897
0.410163
-0.0156483
0.415546
-0.0104308
0.419364
-0.00556363
0.421618
-8.91448e-05
0.423339
0.00490589
0.424623
0.0109166
0.426406
0.0170418
0.429119
0.0252501
0.433448
0.0347043
0.439368
0.0471406
0.444868
0.0598504
0.446104
0.0685462
0.440173
0.0653291
0.428117
0.0496903
0.412446
0.0343275
0.394204
0.0281954
0.37285
0.0284154
0.348228
0.0304961
0.321637
0.0319141
0.295519
0.032184
0.271935
0.0318309
0.251257
0.0321864
0.232257
0.0344142
0.213226
0.0393731
0.192033
0.0490075
0.167136
0.0632192
0.129589
0.0995659
0.0870834
0.0714585
-0.185103
-0.0668823
-0.161173
-0.0713681
-0.132551
-0.085525
-0.102787
-0.0910757
-0.0716832
-0.0959299
-0.0393923
-0.0995617
-0.00749547
-0.0985182
0.022286
-0.0924738
0.0495764
-0.0844053
0.0742819
-0.0753333
0.0960768
-0.0655261
0.115137
-0.0566363
0.131846
-0.0488755
0.14648
-0.0419579
0.159348
-0.0365155
0.170786
-0.0320362
0.181062
-0.0285921
0.190441
-0.0259534
0.19913
-0.0240879
0.207296
-0.0226174
0.215123
-0.021665
0.222626
-0.020781
0.229707
-0.0196562
0.236066
-0.0171205
0.241413
-0.0138436
0.24586
-0.0111933
0.249477
-0.00857053
0.252301
-0.0061237
0.254398
-0.00383255
0.255758
-0.00163255
0.25644
0.000500272
0.256406
0.00257127
0.255661
0.00461907
0.254134
0.00670315
0.25174
0.00903314
0.248125
0.0123449
0.242973
0.0169216
0.232687
0.0344504
0.214883
0.055734
-0.199339
0.222022
-0.0854856
0.244788
-0.088635
0.269821
-0.0905835
0.292676
-0.0828424
0.314837
-0.0796716
0.33609
-0.0731607
0.355614
-0.064633
0.373234
-0.0573561
0.389162
-0.048506
0.403178
-0.0407756
0.415394
-0.0334054
0.425823
-0.0260774
0.43453
-0.0191381
0.44159
-0.0126233
0.447303
-0.00580209
0.451123
0.00108547
0.453157
0.00888292
0.453178
0.0170204
0.451738
0.0266904
0.449323
0.0371195
0.44719
0.0492731
0.446609
0.0604318
0.447057
0.0680983
0.44627
0.0661162
0.442345
0.0536153
0.435852
0.04082
0.428154
0.0358932
0.419563
0.037007
0.409018
0.0410413
0.394795
0.0461368
0.375428
0.0515507
0.350761
0.0564981
0.322731
0.0602169
0.294037
0.0631084
0.265971
0.067439
0.237205
0.0777732
0.205658
0.0947667
0.162908
0.142316
0.112314
0.122057
-0.176944
-0.0892775
-0.152939
-0.0953731
-0.123818
-0.114646
-0.0939229
-0.120971
-0.0627562
-0.127097
-0.030363
-0.131955
0.00144688
-0.130328
0.0308539
-0.121881
0.0576736
-0.111225
0.0820057
-0.0996654
0.103499
-0.0870189
0.122395
-0.0755326
0.139126
-0.0656064
0.153944
-0.0567767
0.167171
-0.0497424
0.179031
-0.0438954
0.189816
-0.0393776
0.199706
-0.0358433
0.208931
-0.0333124
0.217628
-0.0313147
0.225908
-0.0299455
0.233838
-0.0287104
0.241356
-0.027174
0.24814
-0.0239048
0.253942
-0.0196452
0.258822
-0.016074
0.262834
-0.0125824
0.266029
-0.00931891
0.26844
-0.00624269
0.270134
-0.003327
0.271145
-0.000510541
0.271494
0.00222187
0.271176
0.00493711
0.270174
0.0077054
0.268365
0.0108423
0.265378
0.0153318
0.260651
0.0216481
0.250922
0.04418
0.232552
0.0741037
-0.195501
0.219006
-0.10899
0.242641
-0.11227
0.269067
-0.117009
0.292661
-0.106437
0.315799
-0.10281
0.33809
-0.0954518
0.358428
-0.0849702
0.376915
-0.0758436
0.393842
-0.0654332
0.408554
-0.0554877
0.421431
-0.0462823
0.432404
-0.0370504
0.44175
-0.0284843
0.44915
-0.0200226
0.454747
-0.0113991
0.458607
-0.00277482
0.461005
0.00648455
0.462067
0.0159587
0.46166
0.0270975
0.460212
0.0385679
0.45783
0.0516546
0.454934
0.0633278
0.451599
0.0714335
0.447143
0.0705719
0.440914
0.0598441
0.433359
0.0483758
0.425652
0.0436005
0.418525
0.044133
0.412024
0.0475426
0.405816
0.0523445
0.398796
0.0585706
0.388874
0.0664207
0.37337
0.075721
0.350583
0.0858951
0.321295
0.096727
0.287368
0.1117
0.249254
0.132881
0.200615
0.190955
0.144217
0.178457
-0.172055
-0.112723
-0.147322
-0.120106
-0.116937
-0.145031
-0.0861896
-0.151718
-0.0542904
-0.158996
-0.0212467
-0.164999
0.0109646
-0.16254
0.0404108
-0.151327
0.0670977
-0.137912
0.0912162
-0.123784
0.112466
-0.108269
0.131192
-0.0942583
0.147894
-0.0823089
0.162793
-0.0716757
0.176206
-0.0631549
0.188394
-0.056084
0.199536
-0.0505192
0.209815
-0.0461222
0.219425
-0.0429229
0.228505
-0.0403947
0.237146
-0.0385866
0.245389
-0.0369528
0.253196
-0.034981
0.260291
-0.0310002
0.266411
-0.0257655
0.271589
-0.0212512
0.275863
-0.0168565
0.279286
-0.0127426
0.281881
-0.00883724
0.283681
-0.00512744
0.284731
-0.00156067
0.285098
0.00185557
0.284788
0.00524703
0.283786
0.00870742
0.282069
0.0125592
0.279302
0.0180985
0.274957
0.0259927
0.266412
0.0527253
0.248616
0.0918998
-0.192327
0.216847
-0.13351
0.241806
-0.137229
0.26961
-0.144814
0.294411
-0.131238
0.318573
-0.126972
0.342236
-0.119114
0.363551
-0.106286
0.383333
-0.0956259
0.401275
-0.0833746
0.41726
-0.0714727
0.431516
-0.0605392
0.443861
-0.0493952
0.454524
-0.0391473
0.4635
-0.0289987
0.470661
-0.0185593
0.476367
-0.00848095
0.480221
0.00263001
0.482345
0.0138345
0.482932
0.0265108
0.48196
0.03954
0.479666
0.0539487
0.476303
0.0666911
0.471601
0.0761352
0.465101
0.0770718
0.456622
0.0683234
0.446787
0.0582104
0.436623
0.0537649
0.426763
0.0539923
0.417403
0.0569026
0.408708
0.0610401
0.400926
0.066352
0.393993
0.0733542
0.387014
0.0827
0.377327
0.0955825
0.360644
0.11341
0.333408
0.138936
0.295017
0.171273
0.242429
0.243544
0.181244
0.239645
-0.167917
-0.137134
-0.142371
-0.145652
-0.11068
-0.176722
-0.0787918
-0.183606
-0.0458914
-0.191896
-0.0119203
-0.19897
0.0210106
-0.19547
0.0508212
-0.181138
0.0776176
-0.164708
0.101688
-0.147855
0.122791
-0.129371
0.141332
-0.112799
0.157911
-0.0988878
0.172791
-0.0865563
0.186281
-0.0766448
0.198639
-0.0684415
0.210027
-0.0619069
0.22064
-0.0567356
0.230605
-0.0528883
0.240052
-0.0498414
0.249071
-0.0476054
0.257683
-0.0455648
0.265833
-0.0431316
0.273337
-0.0385041
0.279862
-0.0322904
0.285397
-0.0267856
0.290033
-0.0214927
0.293768
-0.0164775
0.296644
-0.0117136
0.298694
-0.00717753
0.299962
-0.00282831
0.300476
0.0013415
0.300245
0.00547807
0.299293
0.00965886
0.297484
0.0143682
0.29458
0.0210021
0.289912
0.0306615
0.281547
0.0610904
0.264166
0.109281
-0.190476
0.216325
-0.159358
0.242324
-0.163228
0.271694
-0.174184
0.297765
-0.15731
0.323175
-0.152382
0.347907
-0.143846
0.37038
-0.128758
0.390998
-0.116245
0.409968
-0.102344
0.426866
-0.0883706
0.441922
-0.0755958
0.455276
-0.0627487
0.466798
-0.0506697
0.476561
-0.038762
0.484639
-0.0266372
0.490862
-0.0147033
0.495419
-0.0019269
0.498303
0.0109505
0.499654
0.02516
0.499565
0.0396287
0.498244
0.0552696
0.495749
0.0691862
0.491952
0.0799324
0.486109
0.0829146
0.478012
0.0764205
0.468146
0.0680768
0.457452
0.0644587
0.446518
0.0649262
0.435479
0.067941
0.42434
0.07218
0.413298
0.0773933
0.402705
0.0839473
0.393061
0.0923441
0.384585
0.104058
0.375926
0.122069
0.361789
0.153073
0.334139
0.198923
0.285309
0.292374
0.222089
0.302865
-0.164855
-0.162755
-0.138198
-0.172308
-0.10505
-0.209871
-0.071846
-0.21681
-0.0377396
-0.226003
-0.00252182
-0.234188
0.031395
-0.229387
0.0618759
-0.211618
0.0890314
-0.191864
0.113272
-0.172095
0.134328
-0.150427
0.152747
-0.131218
0.169206
-0.115347
0.184007
-0.101357
0.197487
-0.0901249
0.209931
-0.0808851
0.22151
-0.0734857
0.232365
-0.0675914
0.242632
-0.0631551
0.252403
-0.0596118
0.261747
-0.0569501
0.270679
-0.054497
0.279175
-0.0516268
0.286987
-0.0463169
0.293888
-0.0391911
0.299795
-0.0326924
0.304735
-0.0264326
0.308761
-0.0205036
0.31187
-0.0148231
0.314127
-0.00943371
0.315534
-0.00423535
0.316155
0.000720414
0.316004
0.00562848
0.315042
0.0106215
0.313226
0.0161841
0.31023
0.023997
0.305359
0.0355339
0.296977
0.0694719
0.280108
0.12615
-0.189314
0.216498
-0.186542
0.243929
-0.190658
0.274981
-0.205236
0.302253
-0.184583
0.328952
-0.179081
0.354933
-0.169827
0.378424
-0.152248
0.400251
-0.138072
0.420037
-0.12213
0.437872
-0.106206
0.453985
-0.0917084
0.468216
-0.0769794
0.480645
-0.0630989
0.491401
-0.0495179
0.500429
-0.0356658
0.507709
-0.021983
0.513302
-0.00751998
0.517201
0.00705194
0.519379
0.0229816
0.519964
0.0390435
0.519179
0.0560548
0.51705
0.0713153
0.5135
0.0834819
0.508137
0.0882773
0.500595
0.0839625
0.491219
0.0774529
0.480829
0.0748491
0.469951
0.0758046
0.458659
0.0792327
0.446937
0.0839024
0.434697
0.0896331
0.422019
0.0966254
0.409062
0.105301
0.396426
0.116694
0.38503
0.133465
0.374773
0.163331
0.35923
0.214466
0.322941
0.328664
0.263925
0.361884
-0.162461
-0.189609
-0.134644
-0.200125
-0.0997807
-0.244734
-0.0650527
-0.251538
-0.0295087
-0.261547
0.00707713
-0.270773
0.0422147
-0.264525
0.0735847
-0.242988
0.101292
-0.219571
0.125842
-0.196644
0.146995
-0.17158
0.165357
-0.14958
0.181713
-0.131703
0.196409
-0.116054
0.209826
-0.103542
0.22231
-0.0933686
0.233975
-0.0851511
0.245005
-0.078621
0.255496
-0.0736464
0.265542
-0.069658
0.275173
-0.0665811
0.284433
-0.0637567
0.293257
-0.0604503
0.301438
-0.0544985
0.30871
-0.0464629
0.314986
-0.038968
0.320281
-0.0317284
0.32463
-0.0248525
0.328022
-0.018215
0.330501
-0.0119125
0.332118
-0.00585212
0.332879
-4.07356e-05
0.332822
0.00568523
0.331911
0.0115323
0.330046
0.0180497
0.326949
0.0270932
0.32189
0.0405933
0.313386
0.0779761
0.297025
0.14251
-0.188985
0.217539
-0.215096
0.246418
-0.219537
0.27917
-0.237988
0.307833
-0.213246
0.336
-0.207247
0.363338
-0.197165
0.388047
-0.176958
0.410761
-0.160786
0.431659
-0.143028
0.450328
-0.124875
0.467151
-0.108531
0.482199
-0.0920279
0.495493
-0.0763924
0.50705
-0.0610756
0.516887
-0.0455023
0.525048
-0.0301437
0.531421
-0.0138938
0.536026
0.00244754
0.538925
0.0200822
0.540185
0.0377842
0.539987
0.0562525
0.538376
0.0729263
0.535249
0.0866087
0.530312
0.0932143
0.523286
0.0909883
0.514391
0.086348
0.504313
0.0849274
0.493637
0.0864805
0.482495
0.0903744
0.470804
0.0955933
0.458502
0.101936
0.445486
0.109641
0.431605
0.119182
0.416795
0.131504
0.401439
0.148821
0.387023
0.177747
0.374553
0.226936
0.351089
0.352129
0.301994
0.41098
-0.160642
-0.217952
-0.131469
-0.229298
-0.0948256
-0.281378
-0.0585301
-0.287834
-0.0213308
-0.298746
0.016839
-0.308943
0.0534505
-0.301136
0.0858812
-0.275419
0.114322
-0.248012
0.139353
-0.221675
0.160721
-0.192949
0.179129
-0.167987
0.19543
-0.148005
0.210032
-0.130656
0.223369
-0.116879
0.235801
-0.1058
0.247516
-0.0968664
0.258648
-0.0897523
0.269303
-0.0843022
0.279574
-0.0799284
0.289493
-0.0765
0.299024
-0.0732882
0.308153
-0.0695795
0.316684
-0.0630293
0.324342
-0.0541209
0.330967
-0.0455927
0.336614
-0.0373754
0.341258
-0.0294966
0.344944
-0.0219011
0.347669
-0.0146374
0.349467
-0.00764995
0.350378
-0.000952146
0.3504
0.00566341
0.349529
0.0124036
0.347662
0.0199167
0.344492
0.0302632
0.339256
0.0458293
0.330725
0.0865072
0.314946
0.158289
-0.189085
0.219252
-0.245263
0.249681
-0.249966
0.284327
-0.272633
0.31445
-0.243369
0.343908
-0.236706
0.37272
-0.225977
0.398603
-0.202841
0.422458
-0.184641
0.444344
-0.164914
0.463896
-0.144426
0.481578
-0.126213
0.49751
-0.107959
0.51152
-0.0904027
0.523809
-0.0733646
0.534525
-0.0562183
0.54341
-0.0390288
0.550592
-0.0210754
0.555969
-0.00292965
0.559683
0.0163681
0.561703
0.0357643
0.562019
0.0559364
0.560881
0.0740641
0.55812
0.0893691
0.553546
0.0977887
0.546894
0.0976408
0.538294
0.0949475
0.528438
0.0947836
0.517859
0.0970592
0.506669
0.101564
0.494939
0.107324
0.482587
0.114288
0.469521
0.122707
0.45558
0.133123
0.440474
0.14661
0.423863
0.165433
0.405666
0.195943
0.389517
0.243085
0.37166
0.369987
0.332318
0.450324
-0.159367
-0.24767
-0.128727
-0.259938
-0.0901197
-0.319985
-0.0519627
-0.325991
-0.0130749
-0.337634
0.0269365
-0.348955
0.0650901
-0.33929
0.0987686
-0.309098
0.128114
-0.277358
0.153794
-0.247355
0.175499
-0.214654
0.194022
-0.18651
0.210335
-0.164317
0.224864
-0.145186
0.23811
-0.130124
0.250482
-0.118173
0.262176
-0.10856
0.273348
-0.100925
0.284139
-0.0950929
0.294582
-0.0903716
0.304689
-0.0866067
0.3145
-0.0830999
0.323936
-0.0790153
0.332798
-0.0718907
0.340804
-0.0621272
0.347813
-0.0526019
0.353792
-0.0433544
0.358779
-0.0344837
0.362749
-0.0258709
0.365727
-0.0176153
0.367751
-0.00967449
0.368808
-0.00200859
0.368951
0.00552011
0.368138
0.013217
0.366252
0.0218021
0.36299
0.0335254
0.357632
0.0511876
0.349089
0.0950496
0.333869
0.173509
-0.189793
0.221534
-0.277003
0.253544
-0.281976
0.290121
-0.309211
0.321926
-0.275174
0.353002
-0.267782
0.38329
-0.256265
0.410323
-0.229874
0.43541
-0.209727
0.458335
-0.187839
0.478832
-0.164924
0.497312
-0.144693
0.513886
-0.124533
0.528702
-0.105219
0.541843
-0.0865056
0.553158
-0.0675332
0.562827
-0.0486978
0.570734
-0.0289827
0.576897
-0.00909209
0.581249
0.0120155
0.583889
0.0331248
0.584832
0.0549933
0.584124
0.0747717
0.581777
0.0917163
0.577609
0.101956
0.571385
0.103865
0.563208
0.103125
0.553568
0.104423
0.542998
0.107629
0.531766
0.112796
0.519821
0.119269
0.507223
0.126886
0.493932
0.135999
0.479812
0.147243
0.464626
0.161795
0.447981
0.182078
0.428825
0.2151
0.408655
0.263254
0.390187
0.388454
0.355327
0.485185
-0.1584
-0.279063
-0.126248
-0.292089
-0.0855635
-0.36067
-0.0454715
-0.366083
-0.00461577
-0.378489
0.0372716
-0.390842
0.0771964
-0.379215
0.112274
-0.344175
0.142693
-0.307777
0.169099
-0.273762
0.191281
-0.236836
0.210028
-0.205257
0.226423
-0.180713
0.240914
-0.159676
0.254079
-0.14329
0.266367
-0.130461
0.278012
-0.120205
0.2892
-0.112113
0.300031
-0.105923
0.310595
-0.100936
0.320913
-0.0969245
0.330952
-0.0931388
0.340646
-0.0887098
0.349838
-0.0810824
0.358195
-0.0704846
0.365557
-0.0599633
0.371903
-0.0497002
0.377211
-0.0397917
0.381495
-0.0301549
0.384733
-0.0208536
0.386956
-0.0118972
0.388205
-0.00325811
0.388455
0.00527075
0.387705
0.0139664
0.385811
0.0236964
0.382497
0.0368388
0.377005
0.05668
0.368473
0.103582
0.353879
0.188103
-0.190813
0.224354
-0.310544
0.258126
-0.315748
0.296744
-0.34783
0.330155
-0.308585
0.362847
-0.300474
0.394723
-0.28814
0.423265
-0.258416
0.449491
-0.235953
0.473495
-0.211843
0.494902
-0.186331
0.514285
-0.164076
0.53173
-0.141977
0.547172
-0.120661
0.560944
-0.100278
0.573042
-0.0796304
0.583407
-0.0590627
0.591979
-0.0375554
0.598779
-0.0158913
0.6038
0.00699442
0.607088
0.0298368
0.608621
0.0534603
0.608439
0.074953
0.606516
0.09364
0.602739
0.105734
0.596915
0.109689
0.589118
0.110922
0.579733
0.113808
0.569283
0.11808
0.557963
0.124116
0.54585
0.131382
0.532954
0.139782
0.519271
0.149681
0.504763
0.161751
0.489202
0.177356
0.472371
0.198909
0.453384
0.234087
0.431403
0.285236
0.410409
0.409448
0.37601
0.519586
-0.157779
-0.312098
-0.123897
-0.32597
-0.0810744
-0.403493
-0.0388862
-0.408271
0.00401631
-0.421392
0.047958
-0.434784
0.0898336
-0.42109
0.126417
-0.380759
0.158018
-0.339377
0.185334
-0.301078
0.2081
-0.259601
0.22717
-0.224328
0.243682
-0.197224
0.258193
-0.174188
0.271299
-0.156395
0.283509
-0.142671
0.295072
-0.131768
0.306223
-0.123264
0.317091
-0.116792
0.327728
-0.111572
0.338173
-0.10737
0.348398
-0.103364
0.358371
-0.0986826
0.367865
-0.0905763
0.376562
-0.0791819
0.384278
-0.0676787
0.390963
-0.0563855
0.396618
-0.0454469
0.401186
-0.0347224
0.404707
-0.0243754
0.407167
-0.0143563
0.408585
-0.00467665
0.40898
0.00487558
0.408284
0.0146629
0.406407
0.0255729
0.40303
0.0402158
0.397431
0.062279
0.388972
0.11204
0.375014
0.202061
-0.192322
0.227577
-0.345799
0.263212
-0.351383
0.303992
-0.38861
0.33926
-0.343852
0.373707
-0.334922
0.407228
-0.321661
0.437194
-0.288382
0.464761
-0.26352
0.489832
-0.236915
0.512232
-0.20873
0.532458
-0.184303
0.550648
-0.160168
0.566917
-0.13693
0.581404
-0.114765
0.594126
-0.0923521
0.605093
-0.0700301
0.61434
-0.0468025
0.621826
-0.0233771
0.627481
0.00133943
0.631292
0.0260252
0.63337
0.0513826
0.633645
0.0746777
0.632145
0.0951406
0.62882
0.109058
0.623495
0.115013
0.616092
0.118325
0.607016
0.122883
0.59668
0.128416
0.58534
0.135456
0.573088
0.143634
0.55994
0.15293
0.545886
0.163735
0.530881
0.176756
0.514775
0.193462
0.497391
0.216294
0.478303
0.253175
0.455982
0.307557
0.433185
0.432245
0.39846
0.554311
-0.157369
-0.347051
-0.121823
-0.361517
-0.0766305
-0.448685
-0.0322471
-0.452654
0.0129035
-0.466543
0.059115
-0.480995
0.102964
-0.464939
0.141256
-0.419051
0.174163
-0.372284
0.202493
-0.329408
0.225938
-0.283047
0.245418
-0.243807
0.262165
-0.213972
0.276746
-0.188769
0.289821
-0.16947
0.301957
-0.154807
0.313439
-0.14325
0.324526
-0.134351
0.335365
-0.127632
0.346048
-0.122255
0.356586
-0.117907
0.366986
-0.113764
0.377172
-0.108869
0.386961
-0.100366
0.395976
-0.0881966
0.404032
-0.0757344
0.411061
-0.0634152
0.417026
-0.0514112
0.421918
-0.0396147
0.425718
-0.0281754
0.428423
-0.0170615
0.430048
-0.00630154
0.430574
0.00434957
0.429969
0.0152683
0.428098
0.0274432
0.424699
0.0436151
0.419023
0.0679556
0.410601
0.120462
0.397322
0.215339
-0.19407
0.231273
-0.383002
0.268874
-0.388984
0.311957
-0.431693
0.349118
-0.381013
0.385353
-0.371157
0.420637
-0.356945
0.452156
-0.319901
0.481042
-0.292406
0.507353
-0.263226
0.530755
-0.232132
0.551955
-0.205502
0.570939
-0.179152
0.587928
-0.153919
0.603097
-0.129934
0.616371
-0.105625
0.628025
-0.0816847
0.637895
-0.0566719
0.645968
-0.0314507
0.652248
-0.00494062
0.65668
0.0215933
0.659261
0.0488017
0.660034
0.0739045
0.65898
0.0961945
0.656068
0.111971
0.651158
0.119924
0.644162
0.125321
0.63542
0.131625
0.62527
0.138565
0.613951
0.146776
0.601586
0.155999
0.588197
0.166318
0.573813
0.178119
0.558341
0.192228
0.541704
0.210099
0.523647
0.23435
0.503995
0.272828
0.481466
0.330085
0.457923
0.455789
0.423441
0.588794
-0.157332
-0.383789
-0.119742
-0.399107
-0.0721651
-0.496262
-0.0254026
-0.499417
0.0220664
-0.514012
0.0706158
-0.529545
0.116733
-0.511057
0.156818
-0.459136
0.191202
-0.406667
0.220645
-0.358851
0.244881
-0.307283
0.264843
-0.263769
0.281878
-0.231007
0.296575
-0.203466
0.309647
-0.182543
0.321737
-0.166897
0.333145
-0.154657
0.344137
-0.145343
0.354932
-0.138426
0.365623
-0.132946
0.376226
-0.12851
0.386743
-0.124281
0.397138
-0.119264
0.407184
-0.110412
0.416498
-0.09751
0.424876
-0.0841132
0.43224
-0.0707788
0.438546
-0.0577176
0.443752
-0.04482
0.447836
-0.03226
0.450785
-0.0200104
0.452602
-0.00811903
0.453287
0.00366479
0.452774
0.0157818
0.450936
0.0292814
0.447507
0.0470434
0.441786
0.0736773
0.433489
0.128758
0.420864
0.227965
-0.196126
0.235437
-0.422313
0.275065
-0.428613
0.320564
-0.477191
0.359684
-0.420134
0.397856
-0.409328
0.435098
-0.394187
0.46815
-0.352953
0.498487
-0.322743
0.526162
-0.290901
0.550674
-0.256645
0.57277
-0.227597
0.592611
-0.198993
0.610241
-0.171549
0.626096
-0.145789
0.640129
-0.119658
0.652354
-0.0939105
0.662825
-0.0671428
0.67146
-0.0400857
0.678206
-0.0116868
0.683161
0.0166389
0.68628
0.0456821
0.687471
0.0727141
0.686857
0.0968082
0.684382
0.114446
0.67993
0.124376
0.673406
0.131845
0.664965
0.140066
0.655018
0.148512
0.643792
0.158002
0.631351
0.16844
0.617776
0.179894
0.603066
0.192829
0.587214
0.20808
0.570052
0.22726
0.551342
0.253061
0.530946
0.293224
0.507978
0.353053
0.484038
0.479729
0.450414
0.622419
-0.157382
-0.422532
-0.117909
-0.43858
-0.0676694
-0.546501
-0.0184188
-0.548667
0.0315455
-0.563976
0.0826674
-0.580667
0.131082
-0.559471
0.173153
-0.501207
0.209066
-0.442581
0.239779
-0.389564
0.264879
-0.332382
0.28545
-0.284341
0.302847
-0.248404
0.317726
-0.218344
0.330857
-0.195674
0.342901
-0.178941
0.354224
-0.165981
0.36515
-0.156269
0.375874
-0.14915
0.386528
-0.143599
0.397158
-0.139141
0.407786
-0.134909
0.41835
-0.129828
0.428626
-0.120689
0.438237
-0.107121
0.446919
-0.092796
0.454604
-0.0784633
0.46122
-0.0643342
0.466738
-0.0503376
0.471098
-0.0366204
0.47431
-0.0232223
0.476357
-0.0101659
0.477186
0.00283551
0.476792
0.0161764
0.475004
0.0310695
0.471564
0.0504824
0.465825
0.0794169
0.457626
0.136957
0.445697
0.239894
-0.198543
0.240016
-0.463786
0.281777
-0.470374
0.329793
-0.525208
0.370985
-0.461326
0.411279
-0.449622
0.450482
-0.43339
0.485245
-0.387716
0.517146
-0.354644
0.546123
-0.319878
0.571739
-0.282261
0.594837
-0.250695
0.615563
-0.219719
0.634073
-0.190059
0.650565
-0.162282
0.665192
-0.134285
0.678003
-0.106722
0.689022
-0.0781612
0.698201
-0.0492651
0.705573
-0.0190585
0.711001
0.0112102
0.714545
0.0421388
0.716227
0.0710319
0.716007
0.0970281
0.713949
0.116504
0.709917
0.128408
0.703818
0.137944
0.695766
0.148118
0.686052
0.158227
0.674902
0.169152
0.662422
0.18092
0.648693
0.193622
0.633722
0.2078
0.617459
0.224344
0.599808
0.244911
0.580534
0.272335
0.559448
0.31431
0.535789
0.376712
0.511431
0.504088
0.478839
0.655012
-0.157633
-0.463443
-0.116011
-0.480202
-0.0630649
-0.599448
-0.011181
-0.600551
0.041433
-0.61659
0.0952473
-0.634481
0.146166
-0.61039
0.190316
-0.545357
0.227935
-0.4802
0.259978
-0.421606
0.286076
-0.358481
0.307299
-0.305563
0.325119
-0.266224
0.340242
-0.233467
0.353462
-0.208894
0.365512
-0.19099
0.376768
-0.177237
0.387603
-0.167104
0.398248
-0.159795
0.408858
-0.154209
0.419484
-0.149767
0.430165
-0.14559
0.440875
-0.140537
0.451387
-0.131201
0.461246
-0.116979
0.47021
-0.10176
0.478198
-0.086452
0.485128
-0.0712634
0.490953
-0.0561629
0.495615
-0.0412825
0.499085
-0.0266927
0.501332
-0.0124128
0.502357
0.00181044
0.50207
0.0164635
0.500347
0.0327924
0.496921
0.0539088
0.49118
0.0851582
0.483141
0.144996
0.471929
0.251105
-0.20117
0.244866
-0.507482
0.288959
-0.514467
0.339661
-0.57591
0.383091
-0.504757
0.42555
-0.492081
0.466792
-0.474632
0.503417
-0.42434
0.536934
-0.388161
0.567299
-0.350243
0.594155
-0.309117
0.618393
-0.274933
0.639983
-0.241308
0.659265
-0.209341
0.676493
-0.17951
0.691723
-0.149514
0.705135
-0.120134
0.716688
-0.0897143
0.726418
-0.0589952
0.734231
-0.0268715
0.740174
0.00526677
0.744156
0.0381573
0.746221
0.0689673
0.746438
0.0968104
0.744782
0.11816
0.741209
0.131981
0.735521
0.143633
0.727831
0.155808
0.718375
0.167682
0.707337
0.18019
0.69487
0.193387
0.681008
0.207484
0.665791
0.223017
0.649175
0.240959
0.63106
0.263026
0.611257
0.292138
0.589504
0.336065
0.565169
0.401046
0.540272
0.528985
0.508576
0.686708
-0.158034
-0.506578
-0.114199
-0.524037
-0.0583809
-0.655265
-0.00365967
-0.655273
0.0517338
-0.671983
0.108362
-0.691109
0.161991
-0.664019
0.208332
-0.591699
0.24779
-0.519658
0.281279
-0.455095
0.308431
-0.385634
0.330397
-0.327529
0.348737
-0.284565
0.364153
-0.248883
0.377512
-0.222254
0.389605
-0.203084
0.400826
-0.188457
0.411584
-0.177862
0.422142
-0.170353
0.432675
-0.164743
0.443286
-0.160378
0.454002
-0.156306
0.464827
-0.151362
0.475513
-0.141886
0.485602
-0.127069
0.494847
-0.111005
0.50312
-0.0947254
0.510361
-0.0785046
0.516474
-0.0622763
0.521425
-0.0462333
0.525157
-0.0304243
0.527651
-0.0149071
0.528845
0.000617162
0.52868
0.0166282
0.527044
0.0344284
0.523641
0.0573115
0.517959
0.090841
0.510073
0.152881
0.499548
0.26163
-0.204117
0.250218
-0.553583
0.296754
-0.561003
0.350148
-0.629303
0.396045
-0.550654
0.440678
-0.536714
0.484195
-0.518148
0.522674
-0.462819
0.557912
-0.423399
0.589824
-0.382155
0.617994
-0.337287
0.643224
-0.300163
0.665855
-0.26394
0.685908
-0.229394
0.703858
-0.19746
0.719823
-0.165479
0.733774
-0.134085
0.745898
-0.101839
0.756116
-0.0692134
0.764457
-0.0352119
0.770807
-0.00108387
0.775201
0.0337638
0.77771
0.0664584
0.778259
0.096261
0.776997
0.119422
0.773813
0.135166
0.768538
0.148907
0.761236
0.16311
0.752062
0.176856
0.741218
0.191034
0.728766
0.205839
0.714807
0.221443
0.699363
0.238462
0.682411
0.257911
0.663873
0.281564
0.643507
0.312505
0.621199
0.358373
0.596219
0.426025
0.57068
0.554525
0.539758
0.71763
-0.158637
-0.552058
-0.112418
-0.570256
-0.053514
-0.714169
0.00411826
-0.712905
0.0625077
-0.730373
0.122152
-0.750752
0.178527
-0.720395
0.2273
-0.640471
0.26867
-0.561028
0.303755
-0.490179
0.332073
-0.413952
0.35487
-0.350326
0.373775
-0.30347
0.389543
-0.26465
0.403098
-0.235808
0.415243
-0.215229
0.426467
-0.199681
0.437145
-0.18854
0.447615
-0.180823
0.458071
-0.175198
0.468636
-0.170943
0.479366
-0.167036
0.490286
-0.162281
0.501137
-0.152738
0.511442
-0.137374
0.520918
-0.120481
0.529454
-0.103261
0.536966
-0.0860163
0.543383
-0.0686929
0.548606
-0.0514564
0.552613
-0.034432
0.555323
-0.0176172
0.556723
-0.000782879
0.556722
0.0166298
0.555151
0.0359996
0.551836
0.0606262
0.546203
0.0964743
0.538549
0.160535
0.52872
0.271459
-0.207294
0.255926
-0.602215
0.304938
-0.610014
0.3614
-0.685765
0.409615
-0.598869
0.456772
-0.583872
0.50256
-0.563936
0.54315
-0.503409
0.580124
-0.460374
0.613625
-0.415655
0.643133
-0.366795
0.669645
-0.326676
0.693212
-0.287507
0.71421
-0.250392
0.732918
-0.216168
0.749514
-0.182075
0.764082
-0.148653
0.776717
-0.114473
0.787402
-0.079899
0.79615
-0.0439592
0.802942
-0.00787602
0.807773
0.0289322
0.810583
0.0636487
0.811504
0.0953397
0.810633
0.120293
0.807839
0.13796
0.803007
0.15374
0.796077
0.170041
0.787182
0.185751
0.776493
0.201723
0.764127
0.218205
0.750109
0.235461
0.734476
0.254095
0.717223
0.275163
0.698268
0.300519
0.677422
0.333351
0.654548
0.381247
0.628999
0.451574
0.602855
0.580668
0.572573
0.747912
-0.159343
-0.60001
-0.110618
-0.618981
-0.0484944
-0.776293
0.0122093
-0.773608
0.0737419
-0.791905
0.136579
-0.81359
0.195964
-0.77978
0.247218
-0.691725
0.290665
-0.604476
0.327409
-0.526923
0.356999
-0.443542
0.380712
-0.374039
0.400251
-0.323009
0.416446
-0.280845
0.43024
-0.249603
0.442502
-0.227491
0.453726
-0.210905
0.464362
-0.199176
0.474748
-0.191208
0.485142
-0.185593
0.495634
-0.181435
0.50637
-0.177772
0.517348
-0.173259
0.528339
-0.163729
0.538834
-0.147869
0.548513
-0.130161
0.557313
-0.112061
0.565089
-0.0937927
0.571759
-0.0753627
0.577285
-0.056982
0.581543
-0.0386899
0.584499
-0.0205735
0.586077
-0.00236074
0.586228
0.0164783
0.584795
0.0374323
0.581543
0.0638782
0.576037
0.101981
0.568591
0.16798
0.559467
0.280583
-0.21076
0.262012
-0.653467
0.313699
-0.661701
0.373218
-0.745284
0.424157
-0.649808
0.473761
-0.633476
0.522082
-0.612256
0.564694
-0.546021
0.603626
-0.499306
0.638828
-0.450857
0.669824
-0.397791
0.697518
-0.35437
0.722241
-0.31223
0.744124
-0.272274
0.763629
-0.235673
0.780868
-0.199313
0.796073
-0.163859
0.809208
-0.127609
0.820364
-0.0910549
0.82959
-0.0531853
0.836756
-0.015042
0.84192
0.0237686
0.845093
0.0604755
0.846346
0.0940866
0.845816