/*--------------------------------*- C++ -*----------------------------------*\
| =========                 |                                                 |
| \\      /  F ield         | OpenFOAM: The Open Source CFD Toolbox           |
|  \\    /   O peration     | Version:  2312                                  |
|   \\  /    A nd           | Website:  www.openfoam.com                      |
|    \\/     M anipulation  |                                                 |
\*---------------------------------------------------------------------------*/
FoamFile
{
    version     2.0;
    format      ascii;
    arch        "LSB;label=32;scalar=64";
    class       volSymmTensorField;
    location    "500";
    object      turbulenceProperties:R;
}
// * * * * * * * * * * * * * * * * * * * * * * * * * * * * * * * * * * * * * //

dimensions      [0 2 -2 0 0 0 0];

internalField   nonuniform List<symmTensor> 
10720
(
(0.0144987 0.00306873 -1.20054e-21 0.0120404 -4.48844e-20 0.0134172)
(0.0172866 0.00364566 8.00926e-22 0.0136447 5.09191e-20 0.0155754)
(0.0210786 0.00423414 1.24082e-20 0.0153257 5.24681e-20 0.0184315)
(0.0262503 0.00499592 6.03317e-20 0.0176186 4.92398e-19 0.0222311)
(0.0326215 0.00571448 -2.53294e-19 0.0200522 -1.01478e-18 0.0266719)
(0.0409537 0.00622484 -3.0993e-19 0.0227818 -6.31732e-19 0.0323711)
(0.0517329 0.00649514 1.12441e-19 0.026117 1.08657e-20 0.0395674)
(0.0651913 0.006181 6.25535e-20 0.0300846 9.89083e-20 0.0484254)
(0.0821901 0.00491639 1.66109e-19 0.0351309 -1.34177e-19 0.0596893)
(0.10357 0.00243289 -2.5925e-20 0.0419321 -2.60103e-20 0.0740118)
(0.130614 -0.00179553 3.01555e-18 0.0513612 1.21577e-18 0.0925366)
(0.165468 -0.00835548 -7.26383e-19 0.0647916 -5.57886e-19 0.117021)
(0.211089 -0.0181758 1.48301e-18 0.0840948 -2.22659e-18 0.1499)
(0.272353 -0.032849 7.29142e-19 0.112291 1.56447e-18 0.195176)
(0.357552 -0.0550344 1.15201e-18 0.154535 -2.0424e-18 0.259668)
(0.479504 -0.0890628 4.74245e-19 0.21919 7.23076e-18 0.354038)
(0.663283 -0.143542 3.65935e-17 0.322812 1.94837e-17 0.49944)
(0.940193 -0.230774 -1.02889e-17 0.48898 1.38416e-17 0.723344)
(1.4174 -0.387141 -4.13304e-18 0.789749 -6.70822e-17 1.11644)
(2.14082 -0.639986 2.21874e-18 1.27813 -4.32607e-19 1.72769)
(3.75088 -1.21246 -6.58723e-17 2.3998 -8.9594e-17 3.10439)
(6.10071 -2.11283 1.57304e-16 4.18498 4.7684e-16 5.18199)
(13.8351 -5.12714 -2.57253e-16 10.253 -9.3124e-16 12.1222)
(25.9904 -10.3106 4.53002e-16 21.0506 1.24252e-16 23.6458)
(27.6416 -11.6481 -2.48574e-16 24.5432 -1.19271e-17 26.1543)
(25.51 -11.2303 2.09872e-17 24.4676 -1.28043e-15 24.9718)
(24.4034 -11.0458 2.70087e-16 24.7243 -6.42636e-17 24.5191)
(24.3319 -11.2281 1.95531e-16 25.6864 4.12466e-16 24.9719)
(24.4165 -11.4416 1.14973e-15 26.7055 5.60115e-16 25.5363)
(24.1219 -11.4542 1.04806e-15 27.2737 4.51058e-15 25.6853)
(23.3955 -11.2399 -2.01182e-15 27.3095 -1.73956e-15 25.355)
(22.3232 -10.8336 -2.1766e-15 26.8598 -3.02234e-15 24.6072)
(20.8803 -10.2202 -9.2473e-16 25.8524 -3.97047e-15 23.3888)
(19.0956 -9.4135 -2.96444e-15 24.2903 -5.58092e-15 21.716)
(16.9509 -8.40534 1.07405e-15 22.115 2.92164e-15 19.5543)
(14.5076 -7.22674 1.80071e-16 19.3671 2.16249e-15 16.9539)
(11.3441 -5.6732 -4.60198e-17 15.4786 3.65211e-18 13.4315)
(8.3304 -4.1714 -1.78671e-15 11.5017 -1.07483e-16 9.91862)
(1.83927 -0.926598 -3.59657e-16 2.78511 -1.68897e-15 2.31101)
(0.01203 0.00257344 8.6595e-22 0.0106522 -3.09846e-21 0.0113951)
(0.0101308 0.00212441 -4.4749e-21 0.00934045 4.54504e-21 0.00982535)
(0.00808312 0.00164665 -2.32772e-20 0.00782728 -1.61892e-20 0.00799972)
(0.00638588 0.00123967 2.27039e-20 0.00644521 -3.24241e-20 0.00644591)
(0.0048637 0.000879181 -2.59246e-20 0.00505101 -2.57568e-20 0.00497246)
(0.00355261 0.000586708 -1.2123e-19 0.00372634 1.47213e-19 0.00363918)
(0.00253012 0.000377465 3.68605e-20 0.00261694 1.23423e-19 0.00255719)
(0.00194574 0.000261405 -1.77871e-20 0.00191624 -1.59915e-19 0.00190778)
(0.00211346 0.000277939 8.97902e-20 0.00191824 2.19641e-21 0.00199814)
(0.00295784 0.000385225 -7.69161e-20 0.0024703 -2.21214e-20 0.00271151)
(0.00451444 0.000623823 7.74618e-20 0.00352084 1.86739e-19 0.00402734)
(0.00693531 0.00109498 1.82193e-19 0.00509623 -8.53009e-20 0.00603463)
(0.010512 0.00197149 -2.02507e-19 0.00732821 -5.83337e-20 0.00895544)
(0.0156729 0.00349526 1.35769e-20 0.0104664 9.61926e-20 0.0131347)
(0.0229296 0.00591753 8.3827e-19 0.0148956 1.78221e-19 0.0190127)
(0.0330184 0.00952975 8.31546e-19 0.0213044 -1.75559e-19 0.0273117)
(0.0472599 0.0147525 3.85357e-19 0.0308193 6.00878e-19 0.0392459)
(0.0681598 0.0224734 2.84069e-19 0.0454428 6.03704e-19 0.0570865)
(0.100399 0.0344354 3.0425e-19 0.0687664 -1.71861e-19 0.0849738)
(0.152285 0.0539242 5.7961e-19 0.107411 2.53739e-20 0.130422)
(0.240272 0.0874855 -8.77709e-19 0.174648 -5.32368e-18 0.208335)
(0.393913 0.147342 -3.1047e-18 0.29558 -1.02224e-19 0.346204)
(0.682854 0.262513 2.95394e-18 0.530388 5.21405e-18 0.609275)
(1.22834 0.486478 2.13462e-18 0.99277 -5.64107e-19 1.116)
(2.39607 0.978115 7.46127e-17 2.02225 -1.51406e-17 2.22091)
(4.8035 2.01626 -1.11651e-18 4.23162 -1.16173e-17 4.54211)
(10.5254 4.53133 1.98001e-19 9.66711 7.29769e-18 10.154)
(21.265 9.36762 2.27207e-18 20.3425 -6.9803e-20 20.9242)
(29.545 13.2906 3.31569e-19 29.4247 4.49032e-21 29.641)
(32.6387 14.9584 3.64859e-16 33.7977 5.08686e-18 33.3657)
(33.0578 15.3972 -4.20088e-18 35.511 -2.17075e-19 34.4078)
(32.6456 15.4171 -2.64534e-17 36.2844 3.60794e-17 34.566)
(31.9228 15.2549 -2.24289e-15 36.6213 -1.86757e-16 34.3557)
(30.9818 14.9549 -4.02477e-15 36.6007 -2.58926e-16 33.8616)
(29.8496 14.5327 3.58593e-15 36.2458 3.91294e-16 33.1081)
(28.5629 14.0096 -2.69026e-17 35.6023 1.37019e-16 32.1355)
(26.9098 13.2866 1.3599e-18 34.4276 -5.27298e-16 30.7168)
(25.1172 12.4694 -1.93935e-16 32.9255 2.82923e-16 29.0663)
(20.1427 10.0654 -3.51028e-15 27.4157 1.25565e-16 23.7891)
(0.00226707 -0.000155249 -1.39698e-21 0.00189643 -4.27566e-21 0.00205172)
(0.00222406 -0.000181973 2.50757e-21 0.00191883 5.67756e-21 0.00203798)
(0.00215863 -0.000204454 -1.10594e-22 0.00194119 1.59239e-23 0.00201037)
(0.00205931 -0.00021172 5.10306e-21 0.0019265 7.5801e-22 0.00194814)
(0.00192972 -0.000206755 3.44482e-21 0.00187661 2.99354e-20 0.00185481)
(0.00178982 -0.00019331 2.25501e-20 0.00180978 3.94323e-20 0.00174787)
(0.00164015 -0.000173016 -1.11864e-20 0.00171467 1.80135e-21 0.00162238)
(0.00148395 -0.000149084 -9.35227e-21 0.00159447 -2.45554e-21 0.00148233)
(0.00133653 -0.000125537 -5.24499e-20 0.001468 -5.79404e-20 0.00134398)
(0.00119891 -0.000104531 -1.7561e-20 0.00133681 -5.78512e-21 0.00120848)
(0.00107268 -8.69447e-05 -1.52979e-19 0.00120611 -1.49429e-19 0.00107993)
(0.000987018 -7.80232e-05 -1.90452e-21 0.00111434 2.61246e-20 0.00098911)
(0.000976207 -8.37156e-05 -9.652e-20 0.00110639 2.84939e-21 0.000969181)
(0.00107581 -0.000114016 8.99758e-20 0.00122303 5.34746e-20 0.00104862)
(0.00141248 -0.000214141 -3.28038e-19 0.00159269 -9.56524e-20 0.00132276)
(0.00229534 -0.000517876 1.51628e-18 0.0024493 3.67503e-19 0.00199396)
(0.00462303 -0.00138375 -2.9916e-18 0.00434316 -2.60009e-18 0.00368229)
(0.0101312 -0.00334496 -5.41325e-18 0.00824494 -2.19329e-18 0.00777021)
(0.025007 -0.00841558 -1.15624e-17 0.0184669 4.87674e-18 0.0193103)
(0.0615311 -0.0208201 2.30551e-18 0.0434372 -2.0185e-20 0.0486698)
(0.180295 -0.062009 2.16825e-17 0.126196 3.19909e-17 0.146686)
(0.490241 -0.173505 -4.13983e-17 0.349285 -1.26036e-16 0.4105)
(1.46985 -0.541738 -2.2001e-18 1.08989 2.26062e-16 1.26826)
(4.60794 -1.77791 5.20294e-18 3.60499 -8.7147e-17 4.10231)
(8.80349 -3.54392 -0 7.28281 -0 8.0786)
(12.9204 -5.39641 -2.56192e-17 11.2856 6.08237e-16 12.1844)
(16.562 -7.1518 -6.82397e-17 15.2825 4.69226e-17 16.0299)
(18.8691 -8.39496 -1.10691e-16 18.3852 -4.75954e-16 18.7404)
(18.9055 -8.63598 -9.74143e-16 19.4309 -2.62849e-15 19.2672)
(16.9086 -7.89708 3.87856e-16 18.2818 -8.29527e-15 17.6571)
(14.0807 -6.69143 -1.09078e-16 15.9347 5.63851e-15 15.0203)
(11.3783 -5.47753 -3.38863e-16 13.3929 7.39032e-15 12.3584)
(9.25514 -4.49789 -2.19862e-15 11.2536 4.27006e-15 10.2097)
(7.67091 -3.75322 6.48106e-15 9.56208 1.54317e-14 8.57205)
(6.4797 -3.1862 -4.1336e-16 8.23126 -2.76511e-15 7.31947)
(5.5639 -2.7433 6.23845e-15 7.14746 -3.6746e-15 6.32496)
(4.91707 -2.43211 -2.24011e-16 6.3921 4.92577e-17 5.63453)
(4.3604 -2.13691 3.17456e-15 5.51637 7.05217e-16 4.88545)
(4.49701 -2.25498 5.72197e-15 5.98248 6.56109e-15 5.37317)
(0.00227291 -0.000117567 1.62863e-21 0.00184999 5.33023e-21 0.00203577)
(0.00226157 -7.76371e-05 -1.06017e-21 0.00180466 -2.26579e-20 0.00200878)
(0.00221 -2.67193e-05 -1.44032e-20 0.0017391 -4.80016e-20 0.00195512)
(0.00211612 3.07933e-05 2.69158e-21 0.00166073 6.90679e-20 0.00187426)
(0.00197222 8.48926e-05 3.2353e-20 0.00156958 -3.0486e-20 0.00176326)
(0.00177352 0.000127801 -9.32113e-21 0.00146038 -5.07195e-20 0.00161494)
(0.00153865 0.000150826 5.11495e-20 0.00133585 -1.10761e-19 0.00143915)
(0.00131418 0.000152955 -8.77445e-20 0.0012122 -1.18885e-20 0.0012683)
(0.00111352 0.000139696 -4.79125e-20 0.00109252 1.08905e-19 0.00110891)
(0.000921924 0.000116356 -1.43848e-20 0.000968416 -5.49496e-21 0.000948604)
(0.000751498 8.77024e-05 -2.32063e-20 0.000839678 -5.31494e-20 0.000794821)
(0.000614981 6.18777e-05 4.69527e-21 0.000717194 -2.7548e-20 0.000661715)
(0.000506782 4.2146e-05 1.83313e-20 0.000605966 4.70714e-20 0.000549865)
(0.000418993 2.82119e-05 -1.5489e-20 0.000507055 -1.05438e-20 0.000455565)
(0.000346715 1.88844e-05 -8.61028e-21 0.000420698 -3.08382e-20 0.00037605)
(0.000286783 1.28387e-05 -2.89233e-20 0.000346637 -8.83092e-21 0.000309375)
(0.000236368 8.97551e-06 -4.74084e-21 0.000283086 -6.20711e-23 0.000253106)
(0.000193789 6.45644e-06 -2.73157e-22 0.000228972 -2.45945e-21 0.000205738)
(0.000156382 4.6166e-06 -2.29842e-21 0.000181427 1.65566e-21 0.000164439)
(0.000121922 3.10752e-06 3.06979e-21 0.000138142 -1.04863e-21 0.000126849)
(8.72589e-05 1.73924e-06 -1.15977e-20 9.58644e-05 8.58266e-21 8.97092e-05)
(5.2449e-05 6.64628e-07 -1.02758e-21 5.55804e-05 2.12957e-22 5.32733e-05)
(1.84808e-05 8.35046e-08 -5.01812e-24 1.88622e-05 -1.28478e-22 1.85706e-05)
(3.03592e-06 2.27623e-09 1.66504e-23 3.04582e-06 9.23941e-25 3.03786e-06)
(7.72745e-06 1.60529e-08 -9.15267e-23 7.78723e-06 7.82952e-24 7.7363e-06)
(0.000851215 0.000192922 -8.68887e-19 0.00142945 1.91068e-19 0.000910858)
(0.00451847 0.00133222 -8.03203e-20 0.00782259 -1.21559e-19 0.00474154)
(0.0372392 0.0119653 -6.56009e-21 0.0620991 -3.43231e-19 0.0383237)
(0.128092 0.0458989 -4.97555e-20 0.204225 -6.76091e-22 0.130585)
(0.256255 0.102681 2.70882e-18 0.386154 2.25577e-18 0.261143)
(0.390996 0.17064 1.84645e-19 0.554229 -1.00811e-18 0.401641)
(0.512552 0.2352 4.71354e-18 0.689727 -1.75263e-17 0.533271)
(0.614426 0.289336 2.45535e-15 0.799432 1.7652e-16 0.648434)
(0.701295 0.334889 2.3024e-15 0.897991 1.2422e-16 0.750521)
(0.77882 0.375322 -2.13821e-15 0.995065 -2.52169e-16 0.844992)
(0.856921 0.415506 2.07381e-15 1.09894 2.72106e-16 0.940203)
(0.934334 0.456124 -3.67708e-15 1.21465 -5.42775e-16 1.04032)
(1.13396 0.552248 -3.42274e-15 1.45541 -7.47052e-16 1.25442)
(1.57419 0.775668 -3.41863e-15 1.97924 -1.03676e-16 1.79202)
(0.00151784 -0.000120502 -6.03951e-22 0.00125059 -2.1762e-21 0.00139946)
(0.00147803 -0.000143656 -1.29861e-20 0.00126633 -3.06226e-20 0.00139063)
(0.00140943 -0.000159865 9.56717e-21 0.00127072 2.28695e-20 0.0013616)
(0.0013199 -0.000165123 1.32219e-20 0.00126219 2.50319e-20 0.00131711)
(0.00122892 -0.000160346 2.39572e-20 0.00125142 3.46047e-20 0.00126979)
(0.0011352 -0.000144947 -7.36849e-20 0.00123354 -1.28967e-19 0.00121757)
(0.00104698 -0.000120401 5.1749e-20 0.00120871 1.03871e-19 0.00116503)
(0.000973121 -9.03613e-05 6.91135e-20 0.00118112 6.16688e-20 0.00111757)
(0.000915121 -5.71727e-05 -3.9747e-21 0.00115183 8.36947e-21 0.0010768)
(0.000875397 -2.41351e-05 4.22179e-20 0.00112359 7.52649e-20 0.00104541)
(0.000850746 6.58746e-06 -9.18616e-20 0.00109582 -4.34626e-21 0.001021)
(0.000842029 3.35376e-05 1.25564e-19 0.00107452 1.39328e-19 0.00100686)
(0.000846806 5.60655e-05 5.94663e-20 0.00106208 2.44197e-20 0.00100263)
(0.000864229 7.53641e-05 3.01148e-20 0.00106216 -2.87626e-20 0.00101042)
(0.000877654 8.9154e-05 8.61755e-20 0.00105519 8.51493e-20 0.00101072)
(0.00086596 9.36292e-05 -2.05176e-19 0.00101677 -2.09254e-19 0.000979737)
(0.000762215 7.56151e-05 3.8656e-20 0.000864434 5.65333e-20 0.000839174)
(0.000682786 6.30223e-05 2.62159e-19 0.000756845 7.6906e-20 0.000737764)
(0.000170712 3.95286e-06 5.00478e-21 0.000174882 3.68548e-21 0.000173723)
(0.00344109 0.00149164 -6.09651e-19 0.00490874 -4.23764e-20 0.00445608)
(0.00684843 0.0034443 1.79891e-18 0.0101099 -3.97036e-18 0.00897993)
(0.00339309 0.0016713 2.32665e-19 0.00497371 2.00618e-18 0.00434887)
(0.000740336 0.00034498 6.38008e-18 0.00136293 -1.31157e-18 0.00102079)
(0.0222578 -0.00868643 -1.0551e-17 0.0180446 -4.40208e-18 0.0194721)
(0.147224 -0.0589072 2.62532e-19 0.122583 6.65633e-19 0.131906)
(0.469481 -0.194277 -5.75529e-17 0.408998 1.64531e-17 0.432967)
(1.14979 -0.490832 2.00491e-17 1.04943 8.28413e-18 1.0906)
(2.53207 -1.10915 -2.54834e-17 2.4121 -2.10925e-18 2.46131)
(4.91281 -2.19926 -6.35225e-16 4.86907 6.48974e-16 4.88077)
(7.95534 -3.63184 -1.08379e-15 8.1984 3.35081e-17 8.07212)
(10.5676 -4.91466 3.90326e-15 11.3369 -1.14979e-15 10.9601)
(11.6779 -5.52405 3.18445e-15 13.047 1.73669e-15 12.3841)
(11.1869 -5.36701 -1.54639e-16 12.9822 4.29967e-15 12.1082)
(9.87486 -4.787 6.63654e-15 11.8326 -5.04342e-15 10.8664)
(8.45565 -4.12814 5.15948e-15 10.3839 -2.92441e-15 9.42198)
(7.19229 -3.52363 -9.57869e-15 8.95226 -3.55016e-15 8.06782)
(6.21466 -3.05337 -2.70139e-17 7.81089 -1.68904e-15 7.01416)
(5.2747 -2.55635 6.26781e-15 6.35373 -1.58446e-15 5.79009)
(5.68024 -2.81452 -1.30985e-14 7.35003 4.22404e-15 6.54214)
(0.0015522 -9.11043e-05 -2.8395e-21 0.00123878 -6.86489e-21 0.00140939)
(0.00156568 -5.92717e-05 -2.35638e-21 0.0012237 -2.58367e-21 0.00140584)
(0.0015711 -2.043e-05 2.12361e-20 0.00121257 3.71833e-20 0.00140042)
(0.00154388 2.08073e-05 -1.27912e-20 0.00119225 -6.25947e-22 0.00137348)
(0.00148458 6.12863e-05 3.04411e-21 0.00116497 1.59628e-20 0.00132791)
(0.00138226 9.45469e-05 -4.97007e-21 0.0011207 5.04192e-20 0.00125261)
(0.0012428 0.000115289 -1.14466e-20 0.00105709 4.76729e-20 0.00114977)
(0.00108704 0.000121546 1.33477e-19 0.000979562 9.6339e-20 0.00103372)
(0.000943522 0.000117563 1.99261e-20 0.00090637 -2.61721e-20 0.000925779)
(0.000803106 0.000104287 7.13323e-20 0.000824285 9.32059e-21 0.000814298)
(0.000664137 8.4454e-05 -5.56137e-20 0.000723571 -3.73377e-20 0.000694615)
(0.00053886 6.38433e-05 -4.01953e-20 0.00061641 6.16983e-20 0.000579072)
(0.000432621 4.57751e-05 4.33869e-20 0.000514431 -2.19604e-20 0.000475864)
(0.000344876 3.11657e-05 3.57188e-20 0.000422742 -1.30456e-22 0.000387131)
(0.000274804 2.00997e-05 -2.57989e-20 0.000344661 2.48842e-20 0.000313888)
(0.000219731 1.20343e-05 -1.86478e-20 0.000280097 4.50056e-20 0.000254777)
(0.000177755 6.39071e-06 4.53045e-20 0.000228859 -2.77678e-20 0.000208692)
(0.000146505 2.47151e-06 4.22689e-20 0.000189416 -7.71928e-21 0.000173738)
(0.000124168 -3.00173e-07 1.66307e-20 0.000160366 -1.47453e-21 0.000148286)
(0.000108451 -2.41421e-06 -5.6459e-21 0.000139158 2.0892e-20 0.000130017)
(9.79625e-05 -4.16496e-06 7.99044e-20 0.000124202 9.87756e-21 0.000117436)
(9.16473e-05 -5.84954e-06 3.20342e-21 0.000113942 -1.48576e-20 0.000109335)
(8.90451e-05 -7.67574e-06 -2.59685e-22 0.000107317 -9.69873e-22 0.000105007)
(8.91713e-05 -9.44682e-06 -1.81475e-21 0.000101838 -1.06094e-20 0.000102932)
(9.2341e-05 -1.05781e-05 -1.51614e-21 9.77672e-05 7.97456e-21 0.000103494)
(9.52338e-05 -1.00466e-05 1.29231e-19 9.33031e-05 -6.63867e-21 0.000103183)
(0.000104347 -9.47634e-06 3.47396e-22 9.5862e-05 -1.00063e-23 0.000110096)
(6.26068e-05 -2.75253e-06 -4.71058e-21 5.80043e-05 2.64177e-22 6.39406e-05)
(0.000474077 -6.55472e-05 -1.02596e-21 0.000295504 -1.57611e-22 0.000501949)
(0.00325925 -0.000272184 -2.52181e-18 0.0016856 -9.41049e-20 0.00340789)
(0.00933506 0.000424195 1.7604e-17 0.00467944 7.81695e-19 0.00965407)
(0.0187835 0.00468285 -2.39374e-19 0.011265 -1.32708e-20 0.0193705)
(0.038604 0.0154366 -2.73071e-16 0.0316809 -1.2766e-17 0.0399562)
(0.0759827 0.0342763 -3.14161e-19 0.0747656 9.44129e-18 0.0792594)
(0.130185 0.0608398 -1.19244e-18 0.139688 8.15158e-18 0.137254)
(0.196707 0.0929538 3.53901e-17 0.218852 -1.02993e-16 0.208534)
(0.267586 0.12758 -1.72751e-16 0.305668 7.10516e-16 0.286701)
(0.333491 0.154076 2.18622e-15 0.353601 8.14164e-16 0.3423)
(0.548264 0.261168 4.48563e-15 0.615201 1.75776e-15 0.593704)
(0.00128851 -9.76976e-05 -2.52605e-21 0.00106031 -4.72089e-21 0.00116908)
(0.00127314 -0.000115777 -5.50346e-21 0.00108091 -8.81844e-21 0.00117113)
(0.00124326 -0.000131401 1.05162e-20 0.00110008 1.5999e-20 0.00116414)
(0.00120671 -0.000141543 1.48041e-20 0.00111814 1.43984e-20 0.00115342)
(0.00115892 -0.000144743 1.67334e-21 0.00112689 -7.26542e-22 0.0011322)
(0.00110138 -0.000141115 -5.67943e-21 0.00112596 1.39638e-20 0.00110097)
(0.00103935 -0.000131397 1.07887e-19 0.00111479 1.08098e-19 0.00106236)
(0.000972773 -0.000116712 -1.01061e-19 0.00108965 -1.34194e-19 0.00101448)
(0.000904793 -9.88104e-05 2.82689e-20 0.00105273 7.30831e-21 0.000959837)
(0.000836921 -7.97129e-05 1.33609e-19 0.00100427 9.89766e-20 0.000899698)
(0.000769938 -6.08835e-05 1.05099e-19 0.000946101 1.06741e-19 0.000835245)
(0.000703904 -4.35105e-05 1.14001e-19 0.000879742 3.27579e-20 0.000767496)
(0.000638514 -2.83865e-05 -1.27127e-19 0.000806701 -9.63986e-20 0.000697222)
(0.000573925 -1.58325e-05 -7.97209e-20 0.000729269 -7.99739e-20 0.000625782)
(0.000509927 -5.80753e-06 8.77345e-21 0.000648816 -2.68009e-20 0.000553632)
(0.00044366 2.90139e-06 -1.9534e-19 0.000563392 1.37517e-20 0.00047897)
(0.000377814 1.02152e-05 -5.2818e-20 0.000475007 -6.6936e-20 0.000404461)
(0.000322287 1.58946e-05 -2.85879e-19 0.000397138 -2.22332e-19 0.000341396)
(0.000255156 1.60022e-05 2.1826e-20 0.000298776 -2.93719e-20 0.000265977)
(0.000141695 5.95862e-06 2.74543e-21 0.000152074 -6.26279e-21 0.000144444)
(1.66932e-05 7.87601e-08 -2.84827e-22 1.679e-05 -3.37472e-24 1.67233e-05)
(0.00053253 7.33784e-05 3.30726e-20 0.00060204 7.31435e-21 0.000557666)
(0.00127865 0.000353787 -6.72709e-19 0.00153343 -1.36906e-19 0.0013774)
(0.00486093 0.00227697 -1.36448e-18 0.00595801 1.46478e-18 0.0052646)
(0.015153 0.00704783 1.17181e-18 0.0167597 7.94056e-20 0.0155076)
(0.0299334 0.0132004 1.06948e-17 0.0294925 5.70436e-18 0.0288026)
(0.00666934 0.00271532 -2.9394e-19 0.00577157 1.21456e-19 0.00599791)
(0.00807051 0.00235789 1.03891e-18 0.00493258 6.58907e-20 0.00608399)
(0.0322921 -0.0115255 4.05966e-17 0.0233468 2.47189e-18 0.0269734)
(0.250782 -0.107958 -9.87836e-18 0.23213 1.20722e-16 0.239598)
(1.0594 -0.476853 -5.31228e-16 1.0622 -5.24196e-16 1.05751)
(2.81207 -1.29759 1.98741e-15 2.96815 -1.86413e-15 2.88604)
(5.15284 -2.42299 2.17692e-15 5.68053 -2.12264e-16 5.41537)
(7.00243 -3.34338 -3.85032e-16 8.02708 -7.24037e-15 7.51987)
(7.70603 -3.72207 -5.82311e-15 9.1309 -1.76335e-15 8.42741)
(7.50712 -3.65012 6.99721e-16 9.09016 3.66377e-15 8.30245)
(7.00433 -3.42043 -9.96513e-15 8.60203 1.47818e-15 7.81021)
(6.258 -3.01927 -6.98789e-15 7.41607 8.73337e-16 6.82151)
(6.54289 -3.21238 8.11022e-15 8.14383 -4.94781e-15 7.38586)
(0.00128954 -7.51058e-05 -1.36628e-21 0.00103296 -1.40088e-21 0.00115766)
(0.00127903 -5.12169e-05 4.87512e-21 0.00100504 2.23241e-20 0.00113892)
(0.00125241 -2.16721e-05 1.44766e-20 0.000970772 3.21498e-20 0.00111007)
(0.00121286 9.52566e-06 1.56063e-20 0.000937747 -7.6241e-21 0.00107456)
(0.0011558 3.99811e-05 -3.10065e-20 0.000903921 -2.66242e-20 0.00102992)
(0.00107627 6.6081e-05 -3.42218e-21 0.000865084 -3.8091e-20 0.000970837)
(0.000980822 8.44565e-05 -4.75864e-20 0.000822615 -4.88483e-20 0.000901573)
(0.000879003 9.33551e-05 -7.51294e-20 0.000777356 -2.77172e-21 0.000828196)
(0.000775194 9.35048e-05 -2.16017e-20 0.000727843 -1.19313e-20 0.000751976)
(0.000668447 8.578e-05 2.33822e-20 0.000668379 -1.63685e-20 0.000669062)
(0.000565377 7.27341e-05 2.31438e-20 0.000599849 5.3102e-20 0.000583177)
(0.00047446 5.81123e-05 4.35556e-20 0.000530018 -1.68953e-20 0.000502531)
(0.000398355 4.43962e-05 -3.72049e-20 0.000464231 -4.26646e-20 0.00043115)
(0.00033584 3.26781e-05 -7.02521e-21 0.000404537 1.58613e-20 0.000369554)
(0.000285193 2.33522e-05 3.38818e-20 0.000351991 -7.38593e-21 0.000317447)
(0.000244166 1.62558e-05 7.43411e-20 0.000306526 -5.30644e-21 0.000273745)
(0.000211305 1.1071e-05 -4.66376e-20 0.000268254 -1.33538e-20 0.000237765)
(0.00018506 7.3481e-06 -1.41562e-20 0.000236568 -2.06586e-20 0.000208459)
(0.000164284 4.64475e-06 -6.60145e-21 0.000210852 3.65912e-21 0.000184936)
(0.000147525 2.56367e-06 6.89401e-20 0.000189739 -2.72384e-20 0.00016581)
(0.000134023 8.48412e-07 1.24421e-20 0.000172462 -1.82247e-20 0.000150274)
(0.000122794 -7.19e-07 -6.70332e-20 0.000157828 1.9677e-20 0.000137235)
(0.00011289 -2.26746e-06 -2.80267e-21 0.000144555 9.89302e-21 0.000125549)
(0.00010263 -3.70514e-06 -1.0774e-21 0.000130415 -6.61063e-21 0.000113287)
(9.22026e-05 -4.60639e-06 1.00377e-21 0.000115835 -8.2213e-23 0.000100628)
(8.3629e-05 -4.88956e-06 -5.1249e-20 0.000103765 -1.05231e-20 8.99641e-05)
(7.72222e-05 -4.83539e-06 -9.05466e-22 9.46598e-05 1.61016e-22 8.18249e-05)
(7.26562e-05 -4.67172e-06 1.10612e-20 8.81579e-05 2.93367e-22 7.58979e-05)
(6.69046e-05 -4.28745e-06 -3.91779e-22 8.02394e-05 -9.40226e-24 6.89624e-05)
(5.91243e-05 -3.80641e-06 2.52702e-22 7.01619e-05 3.58247e-22 6.02543e-05)
(4.49051e-05 -2.80392e-06 -2.78436e-20 5.21993e-05 -1.00189e-21 4.528e-05)
(2.87035e-05 -1.69613e-06 -6.44535e-22 3.24826e-05 -4.00479e-23 2.86458e-05)
(0.000200399 -5.50014e-05 3.6833e-21 0.000303727 -6.73425e-20 0.00018437)
(0.000395296 -4.55367e-05 1.70512e-17 0.00050524 1.53756e-18 0.000287092)
(0.00166581 0.000598094 1.09253e-18 0.00129668 1.22164e-19 0.00133018)
(0.00854779 0.00332776 -1.87243e-16 0.00673106 -3.54277e-17 0.00772494)
(0.0268169 0.0111948 1.24893e-15 0.0232052 1.83353e-16 0.0257243)
(0.0706227 0.0278943 4.81086e-17 0.0567045 -1.76446e-16 0.0643967)
(0.229835 0.104452 2.73e-16 0.230715 -1.51765e-15 0.23744)
(0.000964183 -7.43941e-05 -3.03409e-21 0.000794144 -4.50957e-21 0.000880879)
(0.000948036 -8.78632e-05 -5.53835e-21 0.000806674 -7.48145e-21 0.000879836)
(0.000922323 -9.91031e-05 1.88299e-20 0.000818487 2.4125e-20 0.000873156)
(0.000888686 -0.000105918 -8.03294e-20 0.000827165 -1.09893e-19 0.000861433)
(0.000847358 -0.000107502 1.99371e-20 0.000830126 3.12754e-20 0.000843039)
(0.000799172 -0.000103634 4.34851e-20 0.000826518 4.52088e-20 0.000817872)
(0.000747513 -9.45867e-05 -3.71141e-20 0.000815504 -6.0839e-20 0.000787525)
(0.00069433 -8.11871e-05 -2.50183e-20 0.000796209 4.32516e-21 0.000752343)
(0.000641643 -6.4565e-05 -1.49547e-19 0.000769004 -1.41452e-19 0.000713452)
(0.000592379 -4.63118e-05 -2.09354e-20 0.000735704 -5.65166e-20 0.000673371)
(0.000547813 -2.77255e-05 4.11452e-21 0.000697763 -1.32764e-20 0.000633321)
(0.000509147 -1.00035e-05 -7.5036e-20 0.000657262 -9.53126e-20 0.000594941)
(0.00047737 5.89102e-06 3.60047e-20 0.000616748 4.31908e-20 0.000559946)
(0.000452672 1.9387e-05 -1.47927e-19 0.000578282 -7.68944e-20 0.000529345)
(0.000434926 3.04255e-05 3.2307e-20 0.000543492 1.79956e-20 0.0005039)
(0.000422102 3.85805e-05 1.41529e-19 0.000512398 1.1841e-19 0.000482193)
(0.000408477 4.36704e-05 -1.94828e-19 0.000480832 -5.54125e-20 0.000459022)
(0.000389004 4.57291e-05 -3.57671e-20 0.000443577 1.60774e-19 0.000429468)
(0.000369396 4.68219e-05 -1.2395e-20 0.000408751 -2.1013e-20 0.000401016)
(0.000339273 4.43052e-05 -1.47939e-19 0.000364001 -2.39539e-20 0.000361567)
(0.000227513 2.19111e-05 8.0566e-20 0.000235033 4.9429e-20 0.000235385)
(4.00941e-05 7.01979e-07 8.38039e-23 4.0243e-05 -1.21093e-22 4.02687e-05)
(1.10806e-05 4.95301e-08 1.26518e-22 1.10869e-05 3.52481e-23 1.10887e-05)
(2.47344e-06 2.17448e-09 3.58461e-24 2.47347e-06 1.1958e-24 2.47361e-06)
(0 0 -0 0 -0 0)
(0 0 0 0 -0 0)
(0.00218075 0.000789206 1.25049e-19 0.00194381 -3.46068e-20 0.0020785)
(0.00641124 0.00263161 -1.96322e-19 0.00553276 -2.96522e-19 0.00599769)
(0.0194186 0.00793086 -8.48039e-18 0.0164425 -4.23812e-19 0.0179499)
(0.00937151 0.0037333 4.36332e-19 0.00768054 2.4811e-20 0.00851456)
(0.021861 0.00825899 -2.5293e-18 0.0166658 9.72514e-19 0.0191974)
(0.0456529 0.0119415 -2.21313e-16 0.0249001 -1.56725e-16 0.0349373)
(0.240746 -0.0982202 -8.15646e-17 0.204159 -2.52329e-16 0.221207)
(1.27302 -0.583769 -5.45071e-15 1.32623 5.36998e-16 1.29663)
(3.15258 -1.48941 7.64487e-16 3.51862 2.50986e-15 3.33288)
(5.00372 -2.39867 -8.62287e-19 5.80567 1.32842e-19 5.40363)
(6.12628 -2.9635 -3.40212e-16 7.29411 4.54409e-15 6.71614)
(6.43217 -3.08556 1.42257e-16 7.49363 1.90169e-16 6.94695)
(6.97136 -3.40195 -1.32567e-14 8.48033 2.74718e-15 7.78207)
(0.000973466 -5.79983e-05 5.35418e-21 0.000780252 3.437e-21 0.000878656)
(0.000975237 -4.04187e-05 -1.5077e-20 0.00076659 -2.4301e-20 0.000871922)
(0.000967263 -1.88375e-05 -8.33424e-21 0.000749905 1.41448e-20 0.000859505)
(0.000946606 4.46417e-06 4.02333e-20 0.000731287 2.95435e-20 0.000839415)
(0.000911513 2.7723e-05 -1.50157e-20 0.000710672 -7.74416e-20 0.000811421)
(0.000858161 4.83614e-05 -2.6869e-20 0.000685183 1.8233e-20 0.000771677)
(0.000791989 6.39222e-05 6.78e-20 0.000656883 5.27797e-20 0.000724251)
(0.000720102 7.2908e-05 -2.25389e-20 0.000627121 -6.15893e-20 0.000673543)
(0.00064475 7.53646e-05 -5.42711e-20 0.000594063 -2.45323e-20 0.000619509)
(0.000566066 7.16191e-05 -4.03762e-20 0.000553813 1.57775e-20 0.000560133)
(0.000489211 6.33212e-05 4.46292e-20 0.000507017 1.69532e-21 0.000498287)
(0.000418537 5.28387e-05 -2.5526e-20 0.000456694 -2.60711e-20 0.000437774)
(0.000355884 4.20686e-05 -3.26581e-20 0.000405684 2.60632e-20 0.000380972)
(0.000301272 3.21408e-05 3.16218e-20 0.000355941 1.36041e-20 0.000328872)
(0.000254411 2.36691e-05 -4.63643e-20 0.000309161 7.73574e-21 0.000282169)
(0.000214677 1.68085e-05 -1.2443e-20 0.000266559 -3.42166e-20 0.000241161)
(0.00018147 1.14774e-05 1.38252e-20 0.000228954 1.76997e-20 0.000205931)
(0.000154125 7.42265e-06 -5.06709e-20 0.000196707 2.37595e-21 0.000176316)
(0.000131986 4.34741e-06 2.01275e-20 0.000169794 -3.61314e-22 0.000151958)
(0.000114178 1.94891e-06 -7.67169e-20 0.000147598 5.2441e-21 0.000132113)
(9.99999e-05 -8.7203e-09 -1.0571e-20 0.000129479 2.88289e-21 0.000116094)
(8.86493e-05 -1.71742e-06 6.15039e-20 0.000114493 5.68583e-21 0.000103034)
(7.93352e-05 -3.28686e-06 5.89618e-20 0.000101567 -1.34947e-20 9.20009e-05)
(7.07568e-05 -4.65786e-06 -4.91575e-20 8.89128e-05 3.644e-21 8.14992e-05)
(6.22256e-05 -5.5308e-06 -6.85964e-22 7.58556e-05 4.09791e-22 7.08384e-05)
(5.44202e-05 -5.80778e-06 -4.7099e-20 6.37347e-05 1.43646e-20 6.09833e-05)
(4.83914e-05 -5.71929e-06 -9.29607e-22 5.38814e-05 1.00817e-23 5.32193e-05)
(4.4556e-05 -5.39401e-06 -7.49887e-24 4.66695e-05 -3.92445e-22 4.79331e-05)
(4.35217e-05 -5.06205e-06 -5.4715e-23 4.27175e-05 1.10639e-23 4.57563e-05)
(4.12514e-05 -4.0978e-06 1.61606e-20 3.83524e-05 1.33799e-22 4.23693e-05)
(5.1717e-05 -5.49397e-06 7.67691e-23 4.50163e-05 -1.71939e-22 5.23161e-05)
(1.19082e-05 -3.20617e-07 2.35084e-24 1.13941e-05 -8.34043e-26 1.18902e-05)
(8.49659e-05 -1.24016e-05 -4.41402e-19 6.21339e-05 -3.30923e-20 8.21689e-05)
(0.000443568 -0.000104868 -3.88558e-18 0.000235887 -3.31845e-19 0.000400731)
(0.000121695 -2.31543e-05 8.4468e-21 7.2341e-05 8.50228e-22 0.000107328)
(0.000433088 -8.64245e-05 -7.99649e-18 0.000203519 -1.27576e-19 0.000343994)
(0.00125493 -0.000129803 2.79759e-18 0.0005003 -2.08532e-17 0.000921476)
(0.00302741 0.00021105 1.45282e-18 0.00118884 2.86827e-19 0.00207576)
(0.0489714 0.0196951 -5.08031e-16 0.0399308 7.05718e-17 0.046509)
(0.000790888 -6.10369e-05 5.97279e-21 0.000651711 7.00562e-21 0.000720667)
(0.000783252 -7.19174e-05 -4.50733e-21 0.000665456 -5.06951e-21 0.000723782)
(0.000768841 -8.14803e-05 1.87594e-23 0.00067951 -3.74848e-22 0.000723263)
(0.000750131 -8.80967e-05 -2.57258e-21 0.000693159 2.41128e-21 0.00072057)
(0.000725967 -9.09726e-05 5.75904e-20 0.000703296 6.08102e-20 0.000713341)
(0.000696862 -8.99692e-05 -3.6437e-20 0.000709705 -4.68125e-20 0.000701591)
(0.000664843 -8.51191e-05 -2.75313e-21 0.00071121 1.20657e-20 0.000685969)
(0.000630415 -7.68323e-05 1.24535e-19 0.000706162 1.19909e-19 0.000665792)
(0.000594641 -6.58152e-05 -2.93975e-20 0.00069436 2.12709e-21 0.000641437)
(0.000558768 -5.31294e-05 -1.40995e-19 0.000675782 -9.42812e-20 0.00061362)
(0.000523167 -3.97212e-05 4.37621e-20 0.000650568 3.66957e-20 0.000582541)
(0.000488366 -2.64975e-05 -1.16544e-19 0.000619627 -3.68756e-20 0.00054893)
(0.000454736 -1.42771e-05 -4.2815e-20 0.000584126 -1.59773e-20 0.000513598)
(0.000422333 -3.55649e-06 -7.32523e-20 0.000545256 4.10267e-20 0.000477153)
(0.000391159 5.36858e-06 6.36152e-21 0.000504249 3.52736e-21 0.000440269)
(0.000359894 1.22821e-05 5.33483e-20 0.000460623 1.19796e-20 0.0004021)
(0.00032624 1.76157e-05 7.36374e-20 0.00041235 1.08576e-19 0.000360982)
(0.000291814 2.13233e-05 2.74996e-19 0.000362059 7.60429e-20 0.000318985)
(0.000260023 2.37023e-05 -1.09776e-19 0.000314762 -5.26841e-21 0.000280191)
(0.000232663 2.50087e-05 1.01228e-19 0.0002732 4.46244e-20 0.00024673)
(0.000209296 2.52173e-05 1.50064e-20 0.000236757 -4.37815e-20 0.000218053)
(0.000182151 2.2248e-05 -1.39302e-20 0.000196504 2.53482e-20 0.000186021)
(0.000126255 1.14844e-05 -4.27367e-20 0.000128995 -2.44332e-20 0.000126479)
(3.19456e-05 7.38905e-07 9.46349e-23 3.18458e-05 -1.11943e-22 3.18533e-05)
(7.28977e-06 3.6933e-08 9.20788e-24 7.27323e-06 -1.90356e-24 7.28023e-06)
(3.54433e-06 8.50047e-09 1.16559e-23 3.53866e-06 -3.61992e-24 3.54124e-06)
(8.42022e-07 4.73863e-10 -2.25653e-25 8.41663e-07 -8.06198e-26 8.41829e-07)
(0 0 -0 0 -0 0)
(0 0 0 0 0 0)
(0.0013349 0.000438442 -1.27205e-19 0.00105227 -5.15175e-19 0.00118966)
(0.00520581 0.00196117 -5.22535e-18 0.00398333 2.15926e-18 0.00457783)
(0.0278098 0.0104699 -3.61222e-17 0.021107 3.78258e-17 0.0243764)