/*--------------------------------*- C++ -*----------------------------------*\
| =========                 |                                                 |
| \\      /  F ield         | OpenFOAM: The Open Source CFD Toolbox           |
|  \\    /   O peration     | Version:  2312                                  |
|   \\  /    A nd           | Website:  www.openfoam.com                      |
|    \\/     M anipulation  |                                                 |
\*---------------------------------------------------------------------------*/
FoamFile
{
    version     2.0;
    format      ascii;
    arch        "LSB;label=32;scalar=64";
    class       volScalarField;
    location    "500";
    object      turbulenceProperties:k;
}
// * * * * * * * * * * * * * * * * * * * * * * * * * * * * * * * * * * * * * //

dimensions      [0 2 -2 0 0 0 0];

internalField   nonuniform List<scalar> 
10720
(
0.0199781
0.0232533
0.0274179
0.03305
0.0396728
0.0480533
0.0587087
0.0718507
0.0885052
0.109757
0.137256
0.17364
0.222542
0.289909
0.385878
0.526366
0.742768
1.07626
1.66179
2.57332
4.62754
7.73384
18.1052
35.3434
39.1695
37.4747
36.8234
37.4951
38.3291
38.5405
38.03
36.8951
35.0608
32.551
29.3101
25.4143
20.1271
14.8754
3.46769
0.0170386
0.0146483
0.0119551
0.0096385
0.00744358
0.00545906
0.00385213
0.00288488
0.00301492
0.00406983
0.00603131
0.00903308
0.0133978
0.019637
0.0284189
0.0408173
0.0586626
0.0853446
0.12707
0.195059
0.311628
0.517848
0.911259
1.66856
3.31961
6.78861
15.1732
31.2658
44.3054
49.901
51.4883
51.748
51.4499
50.7221
49.6017
48.1503
46.0271
43.5545
35.6738
0.00310761
0.00309044
0.0030551
0.00296698
0.00283057
0.00267373
0.0024886
0.00228038
0.00207426
0.0018721
0.00167936
0.00154523
0.00152589
0.00167373
0.00216397
0.0033693
0.00632424
0.0130732
0.0313921
0.076819
0.226588
0.625013
1.914
6.15762
12.0825
18.1952
23.9372
27.9974
28.8018
26.4237
22.5179
18.5648
15.3592
12.9025
11.0152
9.51816
8.47184
7.38111
7.92633
0.00307934
0.00303751
0.00295211
0.00282555
0.00265253
0.00242442
0.00215683
0.00189734
0.00165748
0.00141947
0.001193
0.000996945
0.000831307
0.000690806
0.000571731
0.000471398
0.00038628
0.000314249
0.000251124
0.000193457
0.000136416
8.06513e-05
2.79568e-05
4.5598e-06
1.16255e-05
0.00159576
0.0085413
0.068831
0.231451
0.451776
0.673433
0.867775
1.03115
1.1749
1.30944
1.44803
1.59465
1.9219
2.67272
0.00208395
0.00206749
0.00202087
0.0019496
0.00187507
0.00179316
0.00171036
0.0016359
0.00157187
0.0015222
0.00148379
0.00146171
0.00145576
0.00146841
0.00147178
0.00143123
0.00123291
0.0010887
0.000259659
0.00640296
0.0129692
0.00635784
0.00156202
0.0298873
0.200856
0.655723
1.64491
3.70274
7.33132
12.1129
16.4323
18.5545
18.1387
16.2869
14.1307
12.1062
10.5199
8.70926
9.7862
0.00210019
0.00209761
0.00209204
0.00205481
0.00198873
0.00187779
0.00172483
0.00155016
0.00138784
0.00122084
0.00104116
0.000867171
0.000711458
0.000577375
0.000466677
0.000377302
0.000307653
0.000254829
0.00021641
0.000188813
0.0001698
0.000157462
0.000150685
0.000146971
0.000146801
0.00014586
0.000155152
9.22759e-05
0.000635765
0.00417638
0.0118343
0.0247095
0.0551205
0.115004
0.203563
0.312047
0.429977
0.514696
0.878584
0.00175895
0.00176259
0.00175374
0.00173914
0.00170901
0.00166416
0.00160825
0.00153845
0.00145868
0.00137045
0.00127564
0.00117557
0.00107122
0.000964488
0.000856188
0.000743011
0.000628641
0.00053041
0.000409954
0.000219106
2.51032e-05
0.000846118
0.00209474
0.00804177
0.0237101
0.0441143
0.00921941
0.00954354
0.0413062
0.361255
1.58956
4.33313
8.12436
11.2747
12.6322
12.4499
11.7083
10.2478
11.0363
0.00174008
0.00171149
0.00166663
0.00161258
0.00154482
0.0014561
0.0013525
0.00124228
0.00112751
0.00100294
0.000874202
0.000753504
0.000646868
0.000554966
0.000477315
0.000412218
0.000358662
0.000315044
0.000280036
0.000251537
0.000228379
0.000208929
0.000191498
0.000173166
0.000154333
0.000138679
0.000126853
0.000118356
0.000108053
9.47703e-05
7.11922e-05
4.4916e-05
0.000344248
0.000593814
0.00214634
0.0115019
0.0378731
0.095862
0.348995
0.0013196
0.00131727
0.00130698
0.00128864
0.00126026
0.00122178
0.00117527
0.00112144
0.00106205
0.00100073
0.000939449
0.000880675
0.000827032
0.00078015
0.000741159
0.000708346
0.000674166
0.000631025
0.000589582
0.00053242
0.000348965
6.03029e-05
1.66281e-05
3.71026e-06
0
0
0.00310153
0.00897085
0.0269055
0.0127833
0.0288621
0.0527451
0.333057
1.94794
5.00204
8.10652
10.0683
10.4364
11.6169
0.00131619
0.00130687
0.00128834
0.00125865
0.0012168
0.00115751
0.00108656
0.00101038
0.000929161
0.000840006
0.000747258
0.000656502
0.00057127
0.000493043
0.00042287
0.000361199
0.000308178
0.000263574
0.000226869
0.000196944
0.000172786
0.000153088
0.000136452
0.000120584
0.00010446
8.95691e-05
7.77461e-05
6.95793e-05
6.59977e-05
6.09865e-05
7.45247e-05
1.75962e-05
0.000114634
0.000540093
0.000150682
0.0004903
0.00133835
0.003146
0.0677056
0.00108163
0.00108624
0.00108581
0.00108193
0.0010713
0.00105408
0.00103101
0.00100118
0.00096522
0.000924085
0.000878138
0.000828461
0.00077623
0.000722371
0.000667839
0.000611308
0.000549786
0.000486429
0.000427488
0.000376296
0.000332053
0.000282338
0.000190865
4.78224e-05
1.09216e-05
5.31211e-06
1.26276e-06
0
0
0.00178842
0.00688349
0.0366466
0.0065336
0.0902169
0.197747
1.85373
5.17562
8.34347
11.0846
0.00107183
0.00105829
0.00103858
0.00101258
0.000979211
0.000935344
0.000884859
0.000830688
0.000771786
0.00070667
0.000638476
0.000570601
0.000505647
0.000445129
0.000390099
0.000341242
0.000298773
0.000262571
0.000232215
0.000206924
0.000185814
0.000167764
0.000151532
0.000135381
0.00011861
0.000102643
8.87155e-05
7.70601e-05
6.72853e-05
5.91579e-05
5.21832e-05
4.58225e-05
3.6482e-05
2.58912e-05
1.44544e-05
6.41942e-05
0.000229666
0.000720076
0.00770946
0.000874972
0.000878815
0.000879428
0.000877203
0.000870216
0.000858117
0.000841196
0.000818955
0.000791589
0.000759855
0.000724295
0.000685798
0.000645552
0.000604702
0.000564203
0.000525404
0.000490236
0.000457486
0.000424008
0.000389323
0.000356245
0.000324426
0.000297021
0.000253115
0.00017742
9.38227e-05
1.89816e-05
5.75908e-06
3.34586e-06
4.01478e-07
0
0
0.000839173
0.0284718
0.0215297
0.127474
0.849559
4.25396
8.89253
0.000867788
0.000858058
0.000843906
0.000824416
0.000799132
0.00076669
0.000730234
0.000690496
0.000646735
0.000598749
0.000548313
0.000497331
0.000447348
0.000399431
0.000354475
0.000313196
0.000275994
0.000243109
0.000214539
0.00018995
0.000168867
0.000150585
0.000134203
0.00011846
0.000102697
8.77605e-05
7.46306e-05
6.358e-05
5.43808e-05
4.69128e-05
4.1329e-05
3.77135e-05
3.56612e-05
3.28462e-05
2.36884e-05
7.12489e-06
1.25985e-06
6.7274e-08
0.00023309
0.0007252
0.000730151
0.00073309
0.000734275
0.000732265
0.000726773
0.000718018
0.000705357
0.000688787
0.000668662
0.000644951
0.000618115
0.000588682
0.000557133
0.00052403
0.00049005
0.000454767
0.000417277
0.000379282
0.000343347
0.000311708
0.000285824
0.000266241
0.000251683
0.000230779
0.000196006
0.000150812
9.99356e-05
6.09418e-05
6.33405e-06
3.23906e-06
1.46527e-07
0
0
0.00310864
0.0538605
0.0988571
0.966944
5.32724
0.000717762
0.000708798
0.000696782
0.000680834
0.000660849
0.000636084
0.00060903
0.000579207
0.000546185
0.00051036
0.000472538
0.000433906
0.000395415
0.000357788
0.000321758
0.000288025
0.000257012
0.000229093
0.000204406
0.000182808
0.000163953
0.00014731
0.000132156
0.000117541
0.000102967
8.90608e-05
7.65858e-05
6.57558e-05
5.63438e-05
4.81403e-05
4.1087e-05
3.50488e-05
2.9879e-05
2.54324e-05
2.22147e-05
1.85573e-05
1.36048e-05
1.58582e-06
1.66394e-05
0.000604942
0.00060971
0.000613184
0.000615352
0.000615274
0.000612634
0.000607494
0.000599287
0.000587942
0.000573561
0.0005561
0.000535805
0.000513034
0.000488153
0.000461703
0.000434109
0.000406
0.000378471
0.000351615
0.000325401
0.000300291
0.000277472
0.000257173
0.000238714
0.000220175
0.000198588
0.000175038
0.000151982
0.000129711
9.51296e-05
6.32123e-05
2.94351e-06
1.65964e-06
0
0
0
0.03105
0.132008
2.11901
0.000598409
0.000590844
0.00058107
0.000568089
0.000552261
0.000533152
0.000512555
0.00048974
0.000464513
0.000437393
0.00040876
0.00037929
0.000349554
0.000319995
0.000291123
0.000263468
0.000237444
0.000213395
0.000191538
0.000171903
0.000154343
0.000138523
0.000123936
0.000109945
9.62016e-05
8.31056e-05
7.12881e-05
6.09876e-05
5.20715e-05
4.43867e-05
3.78995e-05
3.26527e-05
2.86528e-05
2.58667e-05
2.42617e-05
2.45011e-05
2.62704e-05
2.80162e-05
1.05883e-06
0.000509984
0.000514657
0.000518555
0.00052157
0.000522973
0.00052261
0.000520431
0.000515952
0.000509101
0.000499872
0.000488115
0.000473943
0.000457526
0.000439046
0.000418796
0.000397067
0.000374311
0.000350489
0.000325767
0.000301203
0.000278085
0.000257437
0.000239369
0.000222164
0.000203562
0.000182671
0.000161545
0.000143413
0.000129376
0.000117871
0.000106676
7.7683e-05
3.29187e-05
2.87888e-06
0
0
4.20066e-06
0.00236323
0.552721
0.000504001
0.00049741
0.000489197
0.000478405
0.000465645
0.000450732
0.000434684
0.000416919
0.00039746
0.000376681
0.000354774
0.000332142
0.00030908
0.000285824
0.00026275
0.000240247
0.00021863
0.00019825
0.000179324
0.000161966
0.00014614
0.000131642
0.000118127
0.000105171
9.251e-05
8.04352e-05
6.9442e-05
5.97433e-05
5.12431e-05
4.3802e-05
3.7367e-05
3.19109e-05
2.73573e-05
2.37791e-05
2.11633e-05
2.0628e-05
2.0312e-05
3.41449e-05
1.42738e-05
0.00043299
0.000437365
0.000441288
0.0004446
0.000446723
0.000447599
0.000447079
0.00044483
0.000440704
0.000434675
0.000426557
0.00041638
0.000404203
0.000390105
0.000374293
0.000357003
0.000338495
0.000319189
0.000299522
0.000279884
0.0002609
0.000243079
0.000226641
0.000210658
0.000193258
0.000173576
0.000153069
0.000134653
0.00012
0.000109467
0.000101711
9.70223e-05
8.49858e-05
4.95523e-05
3.2866e-06
0
0
0.00291149
0.142642
0.000427631
0.000421925
0.000415033
0.000406001
0.000395593
0.000383814
0.00037109
0.000357055
0.000341889
0.000325814
0.000308887
0.000291364
0.000273405
0.000255113
0.000236697
0.00021843
0.000200548
0.00018332
0.000166979
0.00015166
0.000137384
0.000124063
0.000111489
9.93931e-05
8.76204e-05
7.63917e-05
6.60901e-05
5.69209e-05
4.88433e-05
4.17657e-05
3.56597e-05
3.05342e-05
2.63869e-05
2.32759e-05
2.11488e-05
2.08827e-05
2.07863e-05
2.94858e-05
3.68321e-05
0.000370105
0.000374181
0.00037801
0.000381418
0.000383978
0.000385642
0.000386287
0.000385603
0.00038348
0.000379861
0.000374563
0.000367566
0.000358866
0.00034848
0.00033651
0.000323094
0.000308434
0.000292832
0.000276398
0.000259495
0.000242868
0.000227083
0.000212285
0.00019783
0.000182322
0.00016492
0.000146514
0.000129285
0.000114772
0.000103184
9.37982e-05
8.77024e-05
8.47461e-05
8.15909e-05
5.34783e-05
2.63659e-06
0
0.000814801
0.0493876
0.00036531
0.000360311
0.000354473
0.000346864
0.000338285
0.000328839
0.000318613
0.000307398
0.000295457
0.00028288
0.000269692
0.000256043
0.000241995
0.000227554
0.000212862
0.000198081
0.000183352
0.000168895
0.00015489
0.000141498
0.000128787
0.000116734
0.000105209
9.40577e-05
8.32275e-05
7.28824e-05
6.33244e-05
5.47385e-05
4.71169e-05
4.03949e-05
3.45445e-05
2.95713e-05
2.54511e-05
2.22414e-05
1.99636e-05
1.93713e-05
1.95851e-05
2.51722e-05
4.02173e-05
0.000318123
0.000321876
0.000325516
0.000328869
0.0003316
0.000333687
0.000335031
0.000335352
0.000334552
0.000332569
0.00032923
0.000324496
0.00031832
0.000310669
0.000301599
0.000291193
0.000279567
0.00026698
0.000253625
0.000239756
0.000225827
0.000212255
0.000199132
0.000186051
0.000172086
0.000156621
0.000140278
0.000124704
0.000111203
9.99001e-05
9.0278e-05
8.22767e-05
7.66872e-05
7.45419e-05
7.8418e-05
4.02955e-05
6.34645e-08
0.000263824
0.0163795
0.000313856
0.000309465
0.000304476
0.000298042
0.000290913
0.00028323
0.000274917
0.000265865
0.000256368
0.000246445
0.000236086
0.00022537
0.00021432
0.000202906
0.000191169
0.000179211
0.00016712
0.000155046
0.000143128
0.000131501
0.000120252
0.000109396
9.88831e-05
8.86492e-05
7.86944e-05
6.91651e-05
6.02972e-05
5.22599e-05
4.50737e-05
3.87018e-05
3.31321e-05
2.83839e-05
2.44575e-05
2.14107e-05
1.92663e-05
1.86334e-05
1.88978e-05
2.31764e-05
3.69549e-05
0.000274802
0.000278228
0.00028164
0.000284861
0.000287626
0.000289945
0.000291707
0.00029268
0.000292792
0.000291966
0.000290059
0.000287006
0.000282763
0.000277277
0.000270552
0.000262623
0.000253552
0.000243537
0.000232707
0.000221211
0.00020939
0.000197659
0.000186102
0.000174428
0.000161981
0.000148299
0.000133834
0.000119871
0.000107534
9.701e-05
8.79357e-05
8.00248e-05
7.33805e-05
6.84553e-05
6.73359e-05
8.02378e-05
1.16488e-07
2.81143e-05
0.00415056
0.000270988
0.000267134
0.000262826
0.000257361
0.0002514
0.000245065
0.000238226
0.000230875
0.000223247
0.000215343
0.000207136
0.000198677
0.000189947
0.000180883
0.000171506
0.000161845
0.000151936
0.000141887
0.0001318
0.000121776
0.000111892
0.000102197
9.26872e-05
8.33675e-05
7.42758e-05
6.55385e-05
5.73542e-05
4.98709e-05
4.31275e-05
3.7111e-05
3.18187e-05
2.72746e-05
2.34788e-05
2.04882e-05
1.83359e-05
1.75961e-05
1.77527e-05
2.14577e-05
3.32419e-05
0.000238405
0.000241511
0.000244682
0.000247715
0.000250421
0.00025283
0.000254808
0.000256183
0.000256895
0.000256863
0.000255968
0.000254151
0.000251344
0.000247488
0.000242557
0.000236567
0.000229555
0.000221626
0.000212927
0.000203554
0.000193689
0.000183692
0.000173636
0.000163317
0.000152289
0.000140215
0.000127422
0.000114913
0.000103654
9.39093e-05
8.5444e-05
7.80878e-05
7.16378e-05
6.67938e-05
6.01363e-05
7.51871e-05
3.82037e-05
4.1723e-07
0.000305547
0.000234988
0.000231598
0.000227861
0.000223188
0.000218171
0.000212887
0.000207214
0.000201195
0.000195019
0.000188671
0.000182123
0.000175393
0.000168453
0.000161236
0.000153721
0.000145915
0.000137817
0.000129479
0.000120971
0.000112369
0.000103749
9.51611e-05
8.6626e-05
7.81745e-05
6.98903e-05
6.19031e-05
5.43716e-05
4.74249e-05
4.1115e-05
3.54481e-05
3.04323e-05
2.60989e-05
2.24574e-05
1.95682e-05
1.74633e-05
1.66631e-05
1.6722e-05
1.9852e-05
2.99833e-05
0.000207607
0.000210423
0.000213343
0.000216167
0.00021877
0.000221168
0.000223246
0.000224858
0.000225958
0.000226471
0.000226292
0.000225361
0.000223622
0.000221005
0.000217491
0.000213055
0.00020771
0.000201509
0.000194588
0.000186981
0.000178789
0.000170306
0.000161617
0.000152588
0.000142895
0.000132297
0.000121034
0.000109883
9.96533e-05
9.06528e-05
8.27528e-05
7.58831e-05
6.98348e-05
6.5358e-05
5.95122e-05
6.02502e-05
7.12379e-05
1.46125e-07
2.24056e-05
0.000204555
0.000201551
0.000198299
0.000194282
0.000190038
0.000185586
0.000180838
0.000175872
0.000170829
0.00016569
0.000160423
0.000155041
0.000149499
0.000143723
0.000137689
0.000131368
0.000124748
0.000117846
0.000110699
0.000103359
9.58807e-05
8.83173e-05
8.07016e-05
7.30954e-05
6.55932e-05
5.83217e-05
5.14154e-05
4.49913e-05
3.91086e-05
3.37882e-05
2.90471e-05
2.49215e-05
2.14256e-05
1.86199e-05
1.65394e-05
1.56625e-05
1.56313e-05
1.82548e-05
2.70296e-05
0.000181386
0.000183939
0.000186608
0.000189225
0.000191689
0.000194016
0.000196109
0.000197844
0.000199172
0.00020004
0.000200354
0.00020006
0.000199114
0.000197444
0.000195014
0.000191793
0.000187776
0.000182984
0.000177523
0.000171411
0.000164686
0.00015756
0.000150125
0.000142298
0.000133847
0.000124594
0.00011472
0.000104826
9.55818e-05
8.73087e-05
7.99628e-05
7.35104e-05
6.78754e-05
6.33196e-05
5.97737e-05
5.2733e-05
7.88827e-05
3.62025e-07
3.40851e-10
0.000178668
0.000176003
0.00017315
0.000169683
0.000166071
0.000162287
0.000158285
0.000154159
0.00015001
0.000145816
0.000141552
0.000137212
0.000132756
0.000128117
0.000123253
0.000118133
0.000112719
0.000107016
0.00010103
9.47929e-05
8.83429e-05
8.1719e-05
7.49629e-05
6.81492e-05
6.13857e-05
5.47867e-05
4.84761e-05
4.25563e-05
3.70898e-05
3.21093e-05
2.76396e-05
2.37201e-05
2.03718e-05
1.76559e-05
1.56088e-05
1.46659e-05
1.45525e-05
1.67269e-05
2.42928e-05
0.000158946
0.000161253
0.000163683
0.0001661
0.0001684
0.000170629
0.000172678
0.000174451
0.000175909
0.000177004
0.000177653
0.00017782
0.000177447
0.000176478
0.000174875
0.000172603
0.000169648
0.000166001
0.000161739
0.000156874
0.000151408
0.000145466
0.000139161
0.000132441
0.000125131
0.000117101
0.000108489
9.97556e-05
9.1453e-05
8.38941e-05
7.71036e-05
7.10584e-05
6.58083e-05
6.12218e-05
5.86031e-05
5.13047e-05
6.69706e-05
2.54503e-05
5.26747e-07
0.00015652
0.000154153
0.000151641
0.000148634
0.000145544
0.000142303
0.000138908
0.000135454
0.000132014
0.000128564
0.000125085
0.000121566
0.000117964
0.000114215
0.000110281
0.00010612
0.00010169
9.6978e-05
9.19756e-05
8.66915e-05
8.11524e-05
7.53904e-05
6.94387e-05
6.33645e-05
5.72819e-05
5.1317e-05
4.55728e-05
4.0138e-05
3.50761e-05
3.04281e-05
2.6225e-05
2.25085e-05
1.93055e-05
1.66764e-05
1.46593e-05
1.36526e-05
1.34629e-05
1.52636e-05
2.17549e-05
0.000139647
0.000141726
0.00014394
0.000146152
0.000148295
0.000150397
0.000152374
0.000154128
0.000155642
0.000156867
0.000157736
0.000158209
0.00015825
0.000157799
0.000156828
0.000155293
0.000153174
0.000150455
0.000147172
0.000143342
0.000138944
0.000134037
0.00012874
0.000123026
0.000116755
0.00010983
0.000102356
9.46886e-05
8.72774e-05
8.04146e-05
7.4173e-05
6.85496e-05
6.36348e-05
5.92604e-05
5.64482e-05
5.1655e-05
5.4841e-05
5.15048e-05
6.34281e-06
0.000137479
0.000135372
0.000133152
0.000130537
0.000127873
0.000125085
0.000122185
0.000119275
0.000116401
0.000113545
0.000110686
0.00010781
0.000104879
0.000101834
9.86365e-05
9.52456e-05
9.16148e-05
8.77201e-05
8.35446e-05
7.90851e-05
7.43459e-05
6.93478e-05
6.41213e-05
5.87378e-05
5.33038e-05
4.79329e-05
4.27202e-05
3.7746e-05
3.30732e-05
2.87474e-05
2.48045e-05
2.12872e-05
1.8228e-05
1.56856e-05
1.37e-05
1.26364e-05
1.23768e-05
1.38645e-05
1.9409e-05
0.000122976
0.000124848
0.00012686
0.000128883
0.000130864
0.000132834
0.000134708
0.000136415
0.000137932
0.000139219
0.000140219
0.000140905
0.000141238
0.000141174
0.000140675
0.000139708
0.000138242
0.000136261
0.000133766
0.000130789
0.000127294
0.000123287
0.000118878
0.000114062
0.000108726
0.000102794
9.6344e-05
8.96505e-05
8.30749e-05
7.68833e-05
7.11766e-05
6.59818e-05
6.13722e-05
5.7324e-05
5.4139e-05
5.13082e-05
4.84461e-05
5.53459e-05
2.61676e-05
0.000121037
0.000119157
0.000117192
0.000114912
0.000112596
0.000110186
0.000107698
0.000105227
0.000102809
0.000100427
9.806e-05
9.56945e-05
9.32936e-05
9.08075e-05
8.81972e-05
8.54225e-05
8.24401e-05
7.92202e-05
7.57353e-05
7.1974e-05
6.79343e-05
6.36217e-05
5.9055e-05
5.4301e-05
4.94622e-05
4.46415e-05
3.99268e-05
3.53897e-05
3.10904e-05
2.70763e-05
2.33869e-05
2.00646e-05
1.7147e-05
1.46897e-05
1.27356e-05
1.16202e-05
1.12968e-05
1.25327e-05
1.72596e-05
0.000108519
0.000110207
0.00011203
0.000113876
0.000115699
0.000117533
0.000119294
0.000120928
0.000122414
0.000123716
0.00012479
0.000125609
0.000126142
0.000126349
0.000126201
0.000125664
0.000124706
0.000123307
0.000121456
0.000119184
0.000116443
0.000113209
0.000109578
0.000105556
0.000101055
9.6008e-05
9.04746e-05
8.4664e-05
7.88659e-05
7.33158e-05
6.81275e-05
6.33557e-05
5.90474e-05
5.53043e-05
5.19904e-05
4.98783e-05
4.5915e-05
4.9829e-05
4.05225e-05
0.000106785
0.000105105
0.000103363
0.000101368
9.93435e-05
9.7248e-05
9.51032e-05
9.29945e-05
9.09469e-05
8.89454e-05
8.69694e-05
8.50073e-05
8.30288e-05
8.09857e-05
7.88445e-05
7.65651e-05
7.41066e-05
7.14399e-05
6.85339e-05
6.53672e-05
6.19269e-05
5.82159e-05
5.42449e-05
5.00652e-05
4.57677e-05
4.14547e-05
3.72054e-05
3.30811e-05
2.91376e-05
2.54229e-05
2.19783e-05
1.88458e-05
1.60667e-05
1.36929e-05
1.17712e-05
1.06105e-05
1.02294e-05
1.12641e-05
1.52929e-05
9.59379e-05
9.74585e-05
9.91123e-05
0.000100791
0.000102466
0.000104162
0.000105806
0.000107353
0.000108785
0.00011007
0.00011117
0.000112065
0.000112729
0.000113127
0.000113237
0.000113022
0.000112457
0.00011152
0.000110187
0.000108483
0.000106361
0.000103786
0.000100829
9.75027e-05
9.37409e-05
8.94805e-05
8.47633e-05
7.975e-05
7.46702e-05
6.97266e-05
6.50385e-05
6.06769e-05
5.66791e-05
5.31875e-05
4.99699e-05
4.78594e-05
4.4599e-05
4.42693e-05
4.37909e-05
9.43886e-05
9.28825e-05
9.13352e-05
8.95844e-05
8.78079e-05
8.5979e-05
8.41212e-05
8.23098e-05
8.05638e-05
7.88683e-05
7.72099e-05
7.5573e-05
7.39292e-05
7.22382e-05
7.04697e-05
6.85898e-05
6.65575e-05
6.43428e-05
6.19152e-05
5.92499e-05
5.6329e-05
5.31426e-05
4.96959e-05
4.60317e-05
4.22327e-05
3.83887e-05
3.45696e-05
3.08311e-05
2.72237e-05
2.37946e-05
2.05855e-05
1.76377e-05
1.49934e-05
1.27017e-05
1.08126e-05
9.61249e-06
9.18152e-06
1.00606e-05
1.35027e-05
8.49559e-05
8.63263e-05
8.78228e-05
8.93483e-05
9.08841e-05
9.24451e-05
9.39735e-05
9.5424e-05
9.67874e-05
9.80327e-05
9.91296e-05
0.000100061
0.000100806
0.000101334
0.000101625
0.00010165
0.000101382
0.000100801
9.98788e-05
9.86313e-05
9.70204e-05
9.50044e-05
9.26247e-05
8.99034e-05
8.67885e-05
8.32204e-05
7.92257e-05
7.49277e-05
7.0506e-05
6.61325e-05
6.19224e-05
5.79547e-05
5.42695e-05
5.09986e-05
4.7971e-05
4.56958e-05
4.31743e-05
4.06325e-05
4.16045e-05
8.35713e-05
8.22208e-05
8.0843e-05
7.93008e-05
7.77362e-05
7.61347e-05
7.45165e-05
7.29528e-05
7.1455e-05
7.001e-05
6.8605e-05
6.72285e-05
6.58529e-05
6.44458e-05
6.29788e-05
6.14181e-05
5.97304e-05
5.78872e-05
5.58562e-05
5.36112e-05
5.11318e-05
4.84024e-05
4.54196e-05
4.2218e-05
3.88683e-05
3.54522e-05
3.20281e-05
2.86482e-05
2.53574e-05
2.22003e-05
1.92173e-05
1.64479e-05
1.39345e-05
1.17231e-05
9.86698e-06
8.63267e-06
8.15792e-06
8.92247e-06
1.18825e-05
7.53436e-05
7.65777e-05
7.79305e-05
7.93175e-05
8.07187e-05
8.2153e-05
8.35655e-05
8.4919e-05
8.62028e-05
8.73946e-05
8.84647e-05
8.94032e-05
9.01884e-05
9.07994e-05
9.12174e-05
9.14158e-05
9.13728e-05
9.10648e-05
9.04688e-05
8.95882e-05
8.83936e-05
8.68455e-05
8.49561e-05
8.27559e-05
8.02004e-05
7.7236e-05
7.38771e-05
7.02168e-05
6.63929e-05
6.25497e-05
5.87927e-05
5.52035e-05
5.18248e-05
4.87664e-05
4.5933e-05
4.35663e-05
4.13841e-05
3.8232e-05
3.82693e-05
7.41028e-05
7.28949e-05
7.16646e-05
7.03028e-05
6.89207e-05
6.75128e-05
6.60981e-05
6.47393e-05
6.34461e-05
6.22059e-05
6.10094e-05
5.98441e-05
5.86861e-05
5.75049e-05
5.62772e-05
5.49756e-05
5.35686e-05
5.20291e-05
5.03265e-05
4.84349e-05
4.63315e-05
4.39962e-05
4.142e-05
3.8628e-05
3.56808e-05
3.26496e-05
2.95902e-05
2.65425e-05
2.35481e-05
2.06484e-05
1.78812e-05
1.52836e-05
1.28976e-05
1.07652e-05
8.94182e-06
7.67772e-06
7.16557e-06
7.84851e-06
1.04192e-05
6.69081e-05
6.8019e-05
6.92409e-05
7.05015e-05
7.17781e-05
7.30925e-05
7.4393e-05
7.56482e-05
7.68507e-05
7.79782e-05
7.90083e-05
7.99318e-05
8.07311e-05
8.13896e-05
8.18892e-05
8.2211e-05
8.23326e-05
8.22331e-05
8.18916e-05
8.13007e-05
8.04449e-05
7.92799e-05
7.78014e-05
7.60434e-05
7.39718e-05
7.15327e-05
6.87308e-05
6.56349e-05
6.23507e-05
5.89949e-05
5.56639e-05
5.24348e-05
4.93526e-05
4.65083e-05
4.385e-05
4.14912e-05
3.93772e-05
3.62668e-05
3.52295e-05
6.57957e-05
6.47142e-05
6.36139e-05
6.24091e-05
6.11854e-05
5.99425e-05
5.87019e-05
5.75165e-05
5.63931e-05
5.53225e-05
5.42955e-05
5.33002e-05
5.23163e-05
5.13197e-05
5.0288e-05
4.91952e-05
4.80156e-05
4.67246e-05
4.52944e-05
4.3697e-05
4.19106e-05
3.99132e-05
3.76918e-05
3.52624e-05
3.26767e-05
2.99937e-05
2.7265e-05
2.4523e-05
2.18048e-05
1.91468e-05
1.65846e-05
1.41525e-05
1.18901e-05
9.83552e-06
8.0445e-06
6.75358e-06
6.20901e-06
6.84204e-06
9.10673e-06
5.94872e-05
6.04885e-05
6.15921e-05
6.2735e-05
6.38974e-05
6.50983e-05
6.62926e-05
6.7451e-05
6.85712e-05
6.96297e-05
7.06104e-05
7.15038e-05
7.2298e-05
7.29759e-05
7.35257e-05
7.39309e-05
7.41709e-05
7.42276e-05
7.4081e-05
7.37184e-05
7.31327e-05
7.22832e-05
7.11486e-05
6.97659e-05
6.81051e-05
6.61161e-05
6.37961e-05
6.11956e-05
5.8395e-05
5.54852e-05
5.25501e-05
4.96612e-05
4.68642e-05
4.42299e-05
4.17361e-05
3.94388e-05
3.73097e-05
3.4364e-05
3.2631e-05
5.84916e-05
5.75218e-05
5.65358e-05
5.54685e-05
5.43826e-05
5.32822e-05
5.21908e-05
5.11511e-05
5.01708e-05
4.92406e-05
4.83537e-05
4.74985e-05
4.66572e-05
4.58088e-05
4.49351e-05
4.40135e-05
4.30198e-05
4.19317e-05
4.07258e-05
3.93757e-05
3.78576e-05
3.61483e-05
3.42321e-05
3.21199e-05
2.98537e-05
2.74858e-05
2.50563e-05
2.25952e-05
2.01331e-05
1.77019e-05
1.53346e-05
1.30616e-05
1.09188e-05
8.94133e-06
7.18304e-06
5.86706e-06
5.29352e-06
5.90368e-06
7.93414e-06
5.29461e-05
5.38485e-05
5.48456e-05
5.58803e-05
5.69371e-05
5.80327e-05
5.91255e-05
6.01925e-05
6.12299e-05
6.22185e-05
6.3143e-05
6.39973e-05
6.47712e-05
6.54507e-05
6.60269e-05
6.6484e-05
6.68054e-05
6.69763e-05
6.69767e-05
6.67931e-05
6.64211e-05
6.58248e-05
6.49767e-05
6.39065e-05
6.25925e-05
6.09873e-05
5.9083e-05
5.6915e-05
5.45426e-05
5.20368e-05
4.94669e-05
4.68963e-05
4.43701e-05
4.19451e-05
3.9607e-05
3.73952e-05
3.52617e-05
3.24486e-05
3.03289e-05
5.20553e-05
5.11858e-05
5.03012e-05
4.93536e-05
4.83882e-05
4.74111e-05
4.64477e-05
4.55335e-05
4.46739e-05
4.3861e-05
4.30895e-05
4.23497e-05
4.16257e-05
4.08993e-05
4.01535e-05
3.93706e-05
3.85291e-05
3.76099e-05
3.6589e-05
3.54437e-05
3.41518e-05
3.26894e-05
3.10375e-05
2.92036e-05
2.722e-05
2.5132e-05
2.2973e-05
2.07676e-05
1.85413e-05
1.63224e-05
1.4139e-05
1.20183e-05
9.99229e-06
8.09146e-06
6.36602e-06
5.02503e-06
4.4238e-06
5.03616e-06
6.89421e-06
4.71705e-05
4.79825e-05
4.88839e-05
4.98195e-05
5.07793e-05
5.17777e-05
5.27751e-05
5.37555e-05
5.47117e-05
5.56304e-05
5.6496e-05
5.73052e-05
5.80477e-05
5.87153e-05
5.92981e-05
5.97837e-05
6.01599e-05
6.04104e-05
6.0521e-05
6.04752e-05
6.02715e-05
5.98762e-05
5.92621e-05
5.84499e-05
5.74255e-05
5.61461e-05
5.45974e-05
5.28042e-05
5.08086e-05
4.86644e-05
4.64288e-05
4.41554e-05
4.1882e-05
3.96619e-05
3.7478e-05
3.53615e-05
3.3252e-05
3.05445e-05
2.82179e-05
4.6372e-05
4.55929e-05
4.47994e-05
4.39563e-05
4.30968e-05
4.22285e-05
4.1375e-05
4.05679e-05
3.98108e-05
3.90968e-05
3.84219e-05
3.77775e-05
3.71497e-05
3.65237e-05
3.58843e-05
3.52154e-05
3.44988e-05
3.37171e-05
3.285e-05
3.18762e-05
3.0774e-05
2.95209e-05
2.8097e-05
2.65047e-05
2.47704e-05
2.29313e-05
2.10153e-05
1.90426e-05
1.70337e-05
1.50127e-05
1.30034e-05
1.10291e-05
9.11771e-06
7.29414e-06
5.60253e-06
4.23486e-06
3.60343e-06
4.24211e-06
5.97845e-06
4.20611e-05
4.27928e-05
4.36058e-05
4.44522e-05
4.53226e-05
4.62301e-05
4.71402e-05
4.80375e-05
4.89166e-05
4.97657e-05
5.0572e-05
5.13318e-05
5.20386e-05
5.26841e-05
5.32606e-05
5.37588e-05
5.41668e-05
5.44717e-05
5.46612e-05
5.47191e-05
5.4644e-05
5.44075e-05
5.39815e-05
5.33829e-05
5.2598e-05
5.15896e-05
5.03423e-05
4.88712e-05
4.72051e-05
4.53828e-05
4.34492e-05
4.14496e-05
3.9416e-05
3.7389e-05
3.53609e-05
3.3342e-05
3.12814e-05
2.86762e-05
2.62477e-05
4.13451e-05
4.06477e-05
3.9936e-05
3.91837e-05
3.8418e-05
3.76454e-05
3.68875e-05
3.61728e-05
3.55032e-05
3.48737e-05
3.42805e-05
3.37158e-05
3.31683e-05
3.26245e-05
3.20728e-05
3.1498e-05
3.08844e-05
3.0217e-05
2.94775e-05
2.86469e-05
2.77051e-05
2.66297e-05
2.54012e-05
2.40186e-05
2.25021e-05
2.08843e-05
1.91864e-05
1.74247e-05
1.56156e-05
1.37785e-05
1.19338e-05
1.01002e-05
8.30163e-06
6.55686e-06
4.90179e-06
3.50483e-06
2.83592e-06
3.52639e-06
5.18036e-06
3.75341e-05
3.81937e-05
3.89265e-05
3.96917e-05
4.04806e-05
4.13041e-05
4.21333e-05
4.29527e-05
4.37592e-05
4.45412e-05
4.52888e-05
4.59984e-05
4.66648e-05
4.72808e-05
4.78418e-05
4.83379e-05
4.87617e-05
4.91016e-05
4.93458e-05
4.94795e-05
4.95018e-05
4.93884e-05
4.91131e-05
4.86864e-05
4.80981e-05
4.73153e-05
4.63217e-05
4.51246e-05
4.37431e-05
4.22047e-05
4.05426e-05
3.87924e-05
3.69815e-05
3.51411e-05
3.32638e-05
3.13507e-05
2.93562e-05
2.68639e-05
2.44054e-05
3.68924e-05
3.62679e-05
3.563e-05
3.49575e-05
3.4275e-05
3.35867e-05
3.29126e-05
3.22778e-05
3.1684e-05
3.11263e-05
3.06021e-05
3.01056e-05
2.96257e-05
2.91506e-05
2.86711e-05
2.8174e-05
2.7646e-05
2.70739e-05
2.64411e-05
2.57301e-05
2.4923e-05
2.39986e-05
2.29375e-05
2.17368e-05
2.04123e-05
1.89895e-05
1.74868e-05
1.59157e-05
1.42895e-05
1.26232e-05
1.09339e-05
9.23637e-06
7.54964e-06
5.88734e-06
4.27418e-06
2.8458e-06
2.1241e-06
2.89561e-06
4.49456e-06
3.35182e-05
3.4112e-05
3.47727e-05
3.54636e-05
3.6178e-05
3.69252e-05
3.76788e-05
3.8426e-05
3.91642e-05
3.98822e-05
4.05722e-05
4.12313e-05
4.1855e-05
4.24378e-05
4.29759e-05
4.34625e-05
4.38895e-05
4.42475e-05
4.45266e-05
4.47145e-05
4.48086e-05
4.47894e-05
4.4633e-05
4.43441e-05
4.39145e-05
4.3317e-05
4.2535e-05
4.15693e-05
4.04321e-05
3.91414e-05
3.77208e-05
3.61974e-05
3.45915e-05
3.29277e-05
3.1198e-05
2.93979e-05
2.74817e-05
2.51098e-05
2.26802e-05
3.29429e-05
3.23833e-05
3.18117e-05
3.12107e-05
3.06015e-05
2.99878e-05
2.93876e-05
2.88224e-05
2.82943e-05
2.77987e-05
2.73344e-05
2.68945e-05
2.64712e-05
2.60551e-05
2.56366e-05
2.52046e-05
2.47477e-05
2.42547e-05
2.37108e-05
2.31004e-05
2.24071e-05
2.16116e-05
2.06941e-05
1.96503e-05
1.84935e-05
1.72432e-05
1.59148e-05
1.4516e-05
1.3057e-05
1.15497e-05
1.00072e-05
8.44164e-06
6.86699e-06
5.29229e-06
3.73012e-06
2.27273e-06
1.46908e-06
2.36013e-06
3.91587e-06
2.99507e-05
3.04854e-05
3.10804e-05
3.1704e-05
3.23501e-05
3.30272e-05
3.37113e-05
3.43915e-05
3.50656e-05
3.5723e-05
3.63577e-05
3.69672e-05
3.75478e-05
3.80953e-05
3.86065e-05
3.90756e-05
3.94964e-05
3.98607e-05
4.01608e-05
4.03857e-05
4.05312e-05
4.05824e-05
4.05169e-05
4.03364e-05
4.00342e-05
3.95874e-05
3.89795e-05
3.82083e-05
3.72791e-05
3.62027e-05
3.49949e-05
3.36749e-05
3.2258e-05
3.07598e-05
2.91738e-05
2.74883e-05
2.56649e-05
2.34238e-05
2.10633e-05
2.94349e-05
2.89339e-05
2.84215e-05
2.78843e-05
2.73403e-05
2.67928e-05
2.62577e-05
2.57541e-05
2.52834e-05
2.48418e-05
2.44284e-05
2.40382e-05
2.36636e-05
2.32965e-05
2.29292e-05
2.25522e-05
2.21556e-05
2.17291e-05
2.12598e-05
2.07345e-05
2.01378e-05
1.94514e-05
1.86573e-05
1.77499e-05
1.67388e-05
1.56413e-05
1.44679e-05
1.32246e-05
1.19186e-05
1.05591e-05
9.1559e-06
7.71813e-06
6.25652e-06
4.77629e-06
3.27944e-06
1.80883e-06
8.72987e-07
1.93464e-06
3.43998e-06
2.67778e-05
2.72591e-05
2.77945e-05
2.83573e-05
2.89412e-05
2.9554e-05
3.01746e-05
3.07929e-05
3.1407e-05
3.2008e-05
3.25901e-05
3.31516e-05
3.36894e-05
3.42002e-05
3.46814e-05
3.51289e-05
3.55371e-05
3.58997e-05
3.62095e-05
3.64565e-05
3.66365e-05
3.67385e-05
3.67423e-05
3.66455e-05
3.64439e-05
3.61178e-05
3.56524e-05
3.50423e-05
3.42886e-05