/*--------------------------------*- C++ -*----------------------------------*\
| =========                 |                                                 |
| \\      /  F ield         | OpenFOAM: The Open Source CFD Toolbox           |
|  \\    /   O peration     | Version:  2312                                  |
|   \\  /    A nd           | Website:  www.openfoam.com                      |
|    \\/     M anipulation  |                                                 |
\*---------------------------------------------------------------------------*/
FoamFile
{
    version     2.0;
    format      ascii;
    arch        "LSB;label=32;scalar=64";
    class       volScalarField;
    location    "500";
    object      turbulenceProperties:nuEff;
}
// * * * * * * * * * * * * * * * * * * * * * * * * * * * * * * * * * * * * * //

dimensions      [0 2 -1 0 0 0 0];

internalField   nonuniform List<scalar> 
10720
(
3.5808e-05
3.95347e-05
4.45224e-05
5.09851e-05
5.93088e-05
7.00253e-05
8.38546e-05
0.000101159
0.000122975
0.000150349
0.000185234
0.000230745
0.000291313
0.000374892
0.000495068
0.000673862
0.000955883
0.00140526
0.00222739
0.00359943
0.00691163
0.0127215
0.0339208
0.0760552
0.0937513
0.0946844
0.0957233
0.0992486
0.10276
0.104495
0.10447
0.103222
0.100854
0.0974229
0.0928036
0.0869223
0.0784596
0.0683292
0.0332662
3.25824e-05
2.98038e-05
2.70736e-05
2.45837e-05
2.22497e-05
2.01071e-05
1.82445e-05
1.69612e-05
1.80965e-05
2.07909e-05
2.54813e-05
3.3227e-05
4.5576e-05
6.44541e-05
9.13875e-05
0.000127945
0.000177178
0.000246277
0.000349384
0.000511811
0.000783254
0.00125196
0.00212757
0.0037799
0.00733809
0.0147329
0.0324877
0.0663317
0.0934796
0.105035
0.108443
0.109385
0.109481
0.108985
0.107984
0.106587
0.104441
0.102006
0.0924705
1.50855e-05
1.49803e-05
1.48855e-05
1.48068e-05
1.47166e-05
1.46338e-05
1.45725e-05
1.45188e-05
1.44956e-05
1.45159e-05
1.45435e-05
1.48184e-05
1.58787e-05
1.86525e-05
2.64114e-05
4.68039e-05
9.3898e-05
0.000172801
0.000325446
0.000598909
0.00132765
0.0028303
0.00707411
0.0204341
0.0394934
0.0633335
0.0925995
0.123725
0.148736
0.162678
0.167966
0.168789
0.167205
0.163857
0.159347
0.153846
0.148537
0.139518
0.139928
1.51691e-05
1.52823e-05
1.53788e-05
1.55098e-05
1.56441e-05
1.578e-05
1.59112e-05
1.60218e-05
1.59591e-05
1.58177e-05
1.56246e-05
1.53903e-05
1.51241e-05
1.48294e-05
1.44957e-05
1.41197e-05
1.36767e-05
1.31624e-05
1.25483e-05
1.18435e-05
1.1074e-05
1.04205e-05
1.00541e-05
1.00015e-05
1.00093e-05
0.000103721
0.000549958
0.00416678
0.0141256
0.0287297
0.0437373
0.0550727
0.0618355
0.0656174
0.0680152
0.0700055
0.071737
0.075309
0.0784701
1.62662e-05
1.62835e-05
1.63015e-05
1.63208e-05
1.63445e-05
1.6371e-05
1.64013e-05
1.64368e-05
1.64786e-05
1.65276e-05
1.65859e-05
1.66574e-05
1.67366e-05
1.68814e-05
1.68835e-05
1.64982e-05
1.48915e-05
1.39209e-05
1.02449e-05
0.000107289
0.000273803
0.000206587
0.000343164
0.00100114
0.00326419
0.00759554
0.0155866
0.0309309
0.0573153
0.0937453
0.132774
0.164485
0.184903
0.196749
0.203447
0.206331
0.207581
0.201493
0.210287
1.62529e-05
1.62339e-05
1.62193e-05
1.61977e-05
1.61792e-05
1.61593e-05
1.61415e-05
1.61275e-05
1.61323e-05
1.61473e-05
1.61669e-05
1.61909e-05
1.62202e-05
1.6253e-05
1.62901e-05
1.6331e-05
1.63775e-05
1.64308e-05
1.64945e-05
1.65719e-05
1.66714e-05
1.67989e-05
1.69802e-05
1.71735e-05
1.74359e-05
1.71566e-05
1.72472e-05
1.24842e-05
9.36893e-05
0.000800357
0.00302747
0.00755202
0.0142629
0.0224462
0.0311674
0.039611
0.0470108
0.0536835
0.0631771
1.60861e-05
1.60837e-05
1.60831e-05
1.60835e-05
1.60844e-05
1.60871e-05
1.6092e-05
1.60987e-05
1.61088e-05
1.61224e-05
1.61403e-05
1.61638e-05
1.61944e-05
1.62334e-05
1.62835e-05
1.63453e-05
1.62229e-05
1.58834e-05
1.4169e-05
1.11411e-05
1.00111e-05
1.78789e-05
4.14925e-05
0.00020525
0.000689182
0.00164273
0.000529277
0.00139858
0.00417589
0.0134416
0.0355435
0.0727098
0.118791
0.161312
0.193212
0.215354
0.23195
0.239155
0.255252
1.60868e-05
1.60891e-05
1.60923e-05
1.60945e-05
1.60983e-05
1.61003e-05
1.61016e-05
1.61025e-05
1.61004e-05
1.60977e-05
1.60942e-05
1.60905e-05
1.6087e-05
1.60836e-05
1.60803e-05
1.60768e-05
1.60731e-05
1.60691e-05
1.60641e-05
1.6059e-05
1.60536e-05
1.60479e-05
1.60411e-05
1.60348e-05
1.6028e-05
1.60304e-05
1.60231e-05
1.60826e-05
1.59988e-05
1.59527e-05
1.52082e-05
1.41714e-05
0.000236717
0.00105637
0.00305156
0.00689887
0.013103
0.021844
0.0392272
1.61112e-05
1.61118e-05
1.6112e-05
1.61129e-05
1.61145e-05
1.61164e-05
1.61191e-05
1.61227e-05
1.61274e-05
1.61336e-05
1.61416e-05
1.61522e-05
1.61661e-05
1.61839e-05
1.62082e-05
1.62358e-05
1.62847e-05
1.63088e-05
1.6548e-05
1.65311e-05
1.34301e-05
1.01106e-05
1.00071e-05
1.00003e-05
1e-05
1e-05
9.85554e-05
0.000307893
0.000944293
0.000512484
0.00160075
0.00795648
0.0295427
0.0706808
0.124101
0.175044
0.217176
0.248048
0.278275
1.61112e-05
1.61099e-05
1.61106e-05
1.61095e-05
1.61104e-05
1.61092e-05
1.61071e-05
1.61052e-05
1.61041e-05
1.61039e-05
1.61039e-05
1.61038e-05
1.61041e-05
1.61046e-05
1.61056e-05
1.61068e-05
1.61084e-05
1.61102e-05
1.61124e-05
1.61149e-05
1.61177e-05
1.61207e-05
1.61241e-05
1.61279e-05
1.61329e-05
1.61372e-05
1.61504e-05
1.613e-05
1.62727e-05
1.56949e-05
1.8709e-05
1.05811e-05
3.56313e-05
0.000257849
7.43995e-05
0.000319818
0.0010517
0.00175141
0.0137081
1.61051e-05
1.61048e-05
1.61051e-05
1.61054e-05
1.61055e-05
1.61059e-05
1.61065e-05
1.61073e-05
1.61085e-05
1.61102e-05
1.61125e-05
1.61157e-05
1.61201e-05
1.6126e-05
1.61342e-05
1.61448e-05
1.61609e-05
1.61734e-05
1.62212e-05
1.63368e-05
1.64348e-05
1.5817e-05
1.30202e-05
1.01906e-05
1.00095e-05
1.00022e-05
1.00001e-05
1e-05
1e-05
9.88586e-05
0.000364183
0.00182335
0.000373636
0.0087303
0.0380597
0.0932743
0.160399
0.223993
0.278324
1.61046e-05
1.61039e-05
1.61048e-05
1.61046e-05
1.61063e-05
1.6106e-05
1.61047e-05
1.61035e-05
1.61025e-05
1.61019e-05
1.61014e-05
1.6101e-05
1.61007e-05
1.61005e-05
1.61005e-05
1.61006e-05
1.61007e-05
1.61009e-05
1.61011e-05
1.61014e-05
1.61016e-05
1.61018e-05
1.61018e-05
1.61015e-05
1.61014e-05
1.61017e-05
1.61021e-05
1.61039e-05
1.61035e-05
1.61125e-05
1.60929e-05
1.61758e-05
1.54993e-05
1.42061e-05
1.21182e-05
5.4247e-05
0.000251282
0.000463585
0.00239378
1.61053e-05
1.61055e-05
1.61057e-05
1.61057e-05
1.61059e-05
1.61059e-05
1.61061e-05
1.61065e-05
1.61069e-05
1.61076e-05
1.61087e-05
1.61102e-05
1.61122e-05
1.61151e-05
1.6119e-05
1.61246e-05
1.61321e-05
1.61407e-05
1.61493e-05
1.61654e-05
1.62605e-05
1.63566e-05
1.65097e-05
1.58284e-05
1.36581e-05
1.13669e-05
1.0076e-05
1.0009e-05
1.00034e-05
1e-05
1e-05
1e-05
6.17514e-05
0.00205926
0.00167834
0.0217206
0.0782034
0.166181
0.252302
1.61048e-05
1.61038e-05
1.61042e-05
1.61038e-05
1.61055e-05
1.61054e-05
1.61042e-05
1.61031e-05
1.61022e-05
1.61017e-05
1.61013e-05
1.61011e-05
1.6101e-05
1.61011e-05
1.6101e-05
1.6101e-05
1.61012e-05
1.61014e-05
1.61018e-05
1.61022e-05
1.61027e-05
1.61033e-05
1.6104e-05
1.61048e-05
1.61057e-05
1.6107e-05
1.61087e-05
1.61108e-05
1.61134e-05
1.61167e-05
1.6121e-05
1.6131e-05
1.62006e-05
1.57713e-05
1.33024e-05
1.03124e-05
1.00097e-05
1e-05
7.17865e-05
1.61049e-05
1.6105e-05
1.61053e-05
1.61053e-05
1.61051e-05
1.6105e-05
1.61048e-05
1.61047e-05
1.61046e-05
1.61046e-05
1.61047e-05
1.61049e-05
1.61053e-05
1.61059e-05
1.61068e-05
1.61082e-05
1.61102e-05
1.61128e-05
1.6115e-05
1.6117e-05
1.61238e-05
1.61363e-05
1.62097e-05
1.6508e-05
1.67529e-05
1.64936e-05
1.54617e-05
1.34642e-05
1.17852e-05
1.00253e-05
1.00079e-05
1e-05
1e-05
1e-05
0.000393599
0.00542428
0.0161482
0.0904266
0.200025
1.61043e-05
1.61031e-05
1.61031e-05
1.61027e-05
1.61043e-05
1.61045e-05
1.61036e-05
1.61026e-05
1.61017e-05
1.61013e-05
1.6101e-05
1.61008e-05
1.61007e-05
1.61008e-05
1.61009e-05
1.6101e-05
1.61011e-05
1.61011e-05
1.61012e-05
1.61013e-05
1.61014e-05
1.61016e-05
1.61017e-05
1.61019e-05
1.6102e-05
1.61022e-05
1.61024e-05
1.61027e-05
1.61029e-05
1.6103e-05
1.61035e-05
1.61011e-05
1.61122e-05
1.6067e-05
1.6194e-05
1.5033e-05
1.28803e-05
1.00181e-05
1.06047e-05
1.61048e-05
1.61049e-05
1.61051e-05
1.61049e-05
1.61047e-05
1.61044e-05
1.61042e-05
1.61041e-05
1.6104e-05
1.61039e-05
1.61039e-05
1.6104e-05
1.61043e-05
1.61047e-05
1.61053e-05
1.61062e-05
1.61076e-05
1.61096e-05
1.61115e-05
1.61132e-05
1.6114e-05
1.61172e-05
1.61035e-05
1.61265e-05
1.62875e-05
1.65493e-05
1.68696e-05
1.71217e-05
1.70482e-05
1.51237e-05
1.3011e-05
1.00085e-05
1.00031e-05
1e-05
1e-05
1e-05
0.00442197
0.0305554
0.132833
1.61042e-05
1.6103e-05
1.61026e-05
1.6102e-05
1.61036e-05
1.61038e-05
1.61031e-05
1.61022e-05
1.61015e-05
1.6101e-05
1.61008e-05
1.61007e-05
1.61006e-05
1.61007e-05
1.61008e-05
1.61009e-05
1.61011e-05
1.61012e-05
1.61013e-05
1.61013e-05
1.61014e-05
1.61015e-05
1.61016e-05
1.61018e-05
1.6102e-05
1.61024e-05
1.61029e-05
1.61036e-05
1.61044e-05
1.61055e-05
1.61068e-05
1.61084e-05
1.61113e-05
1.61113e-05
1.61403e-05
1.62165e-05
1.66432e-05
1.46055e-05
1.00026e-05
1.61047e-05
1.61047e-05
1.61048e-05
1.61045e-05
1.61042e-05
1.61039e-05
1.61036e-05
1.61034e-05
1.61031e-05
1.6103e-05
1.61028e-05
1.61027e-05
1.61026e-05
1.61026e-05
1.61025e-05
1.61025e-05
1.61026e-05
1.61027e-05
1.61029e-05
1.61035e-05
1.61044e-05
1.61074e-05
1.61082e-05
1.60938e-05
1.60883e-05
1.6124e-05
1.62458e-05
1.64957e-05
1.68603e-05
1.72657e-05
1.75692e-05
1.51927e-05
1.12037e-05
1.00108e-05
1e-05
1e-05
1.00235e-05
0.00045092
0.0723914
1.61042e-05
1.6103e-05
1.61023e-05
1.61015e-05
1.61029e-05
1.61033e-05
1.61027e-05
1.61018e-05
1.61012e-05
1.61009e-05
1.61007e-05
1.61005e-05
1.61005e-05
1.61005e-05
1.61006e-05
1.61007e-05
1.61009e-05
1.61011e-05
1.61012e-05
1.61014e-05
1.61015e-05
1.61016e-05
1.61016e-05
1.61016e-05
1.61016e-05
1.61017e-05
1.61019e-05
1.61022e-05
1.61025e-05
1.61029e-05
1.61034e-05
1.61041e-05
1.61038e-05
1.61091e-05
1.60887e-05
1.61766e-05
1.58088e-05
1.87736e-05
1.05754e-05
1.61046e-05
1.61045e-05
1.61043e-05
1.6104e-05
1.61036e-05
1.61033e-05
1.6103e-05
1.61028e-05
1.61026e-05
1.61025e-05
1.61024e-05
1.61023e-05
1.61023e-05
1.61024e-05
1.61025e-05
1.61027e-05
1.6103e-05
1.61035e-05
1.61041e-05
1.61046e-05
1.61051e-05
1.61057e-05
1.61082e-05
1.61078e-05
1.60984e-05
1.60838e-05
1.60767e-05
1.61077e-05
1.6198e-05
1.64471e-05
1.68677e-05
1.76395e-05
1.71866e-05
1.30248e-05
1.00158e-05
1e-05
1e-05
0.000808205
0.0332944
1.61042e-05
1.6103e-05
1.61021e-05
1.61012e-05
1.61024e-05
1.61028e-05
1.61024e-05
1.61016e-05
1.6101e-05
1.61007e-05
1.61006e-05
1.61004e-05
1.61003e-05
1.61003e-05
1.61004e-05
1.61005e-05
1.61007e-05
1.61009e-05
1.6101e-05
1.61012e-05
1.61014e-05
1.61015e-05
1.61016e-05
1.61017e-05
1.61018e-05
1.61018e-05
1.6102e-05
1.61022e-05
1.61026e-05
1.6103e-05
1.61035e-05
1.61044e-05
1.61043e-05
1.61089e-05
1.60935e-05
1.61642e-05
1.58561e-05
1.71529e-05
1.43726e-05
1.61044e-05
1.61041e-05
1.61039e-05
1.61035e-05
1.61032e-05
1.61028e-05
1.61025e-05
1.61023e-05
1.61021e-05
1.6102e-05
1.61019e-05
1.61018e-05
1.61018e-05
1.61017e-05
1.61017e-05
1.61018e-05
1.61018e-05
1.6102e-05
1.61022e-05
1.61026e-05
1.61032e-05
1.61038e-05
1.6105e-05
1.61073e-05
1.61081e-05
1.61044e-05
1.60939e-05
1.60812e-05
1.60707e-05
1.60956e-05
1.61676e-05
1.65061e-05
1.72142e-05
1.77916e-05
1.40136e-05
1.00105e-05
1e-05
0.000292651
0.0131119
1.61042e-05
1.61031e-05
1.6102e-05
1.6101e-05
1.61021e-05
1.61024e-05
1.6102e-05
1.61013e-05
1.61008e-05
1.61006e-05
1.61004e-05
1.61003e-05
1.61001e-05
1.61001e-05
1.61001e-05
1.61002e-05
1.61004e-05
1.61006e-05
1.61008e-05
1.6101e-05
1.61012e-05
1.61014e-05
1.61016e-05
1.61017e-05
1.61019e-05
1.6102e-05
1.6102e-05
1.61021e-05
1.61022e-05
1.61025e-05
1.61028e-05
1.61032e-05
1.61035e-05
1.61051e-05
1.61016e-05
1.6119e-05
1.60594e-05
1.62045e-05
1.61644e-05
1.61042e-05
1.61038e-05
1.61035e-05
1.61031e-05
1.61027e-05
1.61024e-05
1.61021e-05
1.61019e-05
1.61018e-05
1.61017e-05
1.61016e-05
1.61015e-05
1.61015e-05
1.61015e-05
1.61015e-05
1.61016e-05
1.61017e-05
1.61019e-05
1.61021e-05
1.61025e-05
1.61029e-05
1.61033e-05
1.61039e-05
1.6105e-05
1.61068e-05
1.61083e-05
1.6108e-05
1.61043e-05
1.60953e-05
1.60827e-05
1.60653e-05
1.60715e-05
1.62498e-05
1.68007e-05
1.85322e-05
1.25095e-05
1e-05
8.30805e-05
0.00434672
1.61042e-05
1.61031e-05
1.6102e-05
1.61008e-05
1.61018e-05
1.61021e-05
1.61018e-05
1.61011e-05
1.61007e-05
1.61004e-05
1.61002e-05
1.61001e-05
1.61e-05
1.60999e-05
1.60999e-05
1.61e-05
1.61001e-05
1.61003e-05
1.61005e-05
1.61007e-05
1.6101e-05
1.61012e-05
1.61014e-05
1.61016e-05
1.61018e-05
1.6102e-05
1.6102e-05
1.61021e-05
1.61022e-05
1.61023e-05
1.61026e-05
1.61029e-05
1.61033e-05
1.61037e-05
1.61047e-05
1.61028e-05
1.61169e-05
1.60526e-05
1.62574e-05
1.61039e-05
1.61034e-05
1.6103e-05
1.61027e-05
1.61023e-05
1.6102e-05
1.61017e-05
1.61016e-05
1.61015e-05
1.61014e-05
1.61014e-05
1.61014e-05
1.61013e-05
1.61013e-05
1.61014e-05
1.61014e-05
1.61015e-05
1.61016e-05
1.61017e-05
1.61019e-05
1.61023e-05
1.61027e-05
1.61032e-05
1.61039e-05
1.61049e-05
1.61064e-05
1.61081e-05
1.61095e-05
1.61099e-05
1.6107e-05
1.60993e-05
1.60727e-05
1.60508e-05
1.6081e-05
1.66663e-05
1.99688e-05
1e-05
1.13552e-05
0.00111878
1.6104e-05
1.61031e-05
1.6102e-05
1.61007e-05
1.61015e-05
1.61018e-05
1.61015e-05
1.61009e-05
1.61005e-05
1.61002e-05
1.61001e-05
1.60999e-05
1.60998e-05
1.60997e-05
1.60997e-05
1.60997e-05
1.60999e-05
1.61e-05
1.61002e-05
1.61005e-05
1.61007e-05
1.6101e-05
1.61012e-05
1.61015e-05
1.61017e-05
1.61019e-05
1.6102e-05
1.61021e-05
1.61021e-05
1.61022e-05
1.61023e-05
1.61025e-05
1.61028e-05
1.6103e-05
1.61041e-05
1.61021e-05
1.61126e-05
1.60813e-05
1.61463e-05
1.61036e-05
1.6103e-05
1.61027e-05
1.61023e-05
1.61019e-05
1.61016e-05
1.61014e-05
1.61013e-05
1.61013e-05
1.61012e-05
1.61012e-05
1.61013e-05
1.61013e-05
1.61013e-05
1.61013e-05
1.61014e-05
1.61015e-05
1.61015e-05
1.61017e-05
1.61019e-05
1.61021e-05
1.61024e-05
1.61028e-05
1.61033e-05
1.6104e-05
1.6105e-05
1.61063e-05
1.61079e-05
1.61099e-05
1.61119e-05
1.61136e-05
1.6112e-05
1.60805e-05
1.6106e-05
1.56369e-05
1.92955e-05
1.26871e-05
1.00003e-05
7.93036e-05
1.61038e-05
1.61031e-05
1.6102e-05
1.61006e-05
1.61013e-05
1.61016e-05
1.61013e-05
1.61007e-05
1.61003e-05
1.61e-05
1.60999e-05
1.60997e-05
1.60996e-05
1.60995e-05
1.60995e-05
1.60995e-05
1.60996e-05
1.60998e-05
1.61e-05
1.61002e-05
1.61004e-05
1.61007e-05
1.6101e-05
1.61013e-05
1.61015e-05
1.61017e-05
1.61019e-05
1.6102e-05
1.61021e-05
1.61021e-05
1.61022e-05
1.61023e-05
1.61025e-05
1.61028e-05
1.61033e-05
1.61031e-05
1.61056e-05
1.61021e-05
1.61073e-05
1.61032e-05
1.61027e-05
1.61023e-05
1.61019e-05
1.61016e-05
1.61013e-05
1.61012e-05
1.61011e-05
1.61011e-05
1.61012e-05
1.61012e-05
1.61013e-05
1.61013e-05
1.61013e-05
1.61014e-05
1.61014e-05
1.61015e-05
1.61016e-05
1.61017e-05
1.61018e-05
1.6102e-05
1.61022e-05
1.61026e-05
1.6103e-05
1.61035e-05
1.61043e-05
1.61053e-05
1.61065e-05
1.61079e-05
1.611e-05
1.61121e-05
1.61195e-05
1.61034e-05
1.61663e-05
1.58158e-05
1.64276e-05
1.94573e-05
1e-05
1.06676e-05
1.61036e-05
1.6103e-05
1.61019e-05
1.61006e-05
1.61011e-05
1.61013e-05
1.6101e-05
1.61005e-05
1.61001e-05
1.60999e-05
1.60997e-05
1.60996e-05
1.60994e-05
1.60993e-05
1.60993e-05
1.60993e-05
1.60994e-05
1.60995e-05
1.60997e-05
1.60999e-05
1.61002e-05
1.61005e-05
1.61008e-05
1.6101e-05
1.61013e-05
1.61016e-05
1.61018e-05
1.6102e-05
1.61021e-05
1.61021e-05
1.61022e-05
1.61022e-05
1.61023e-05
1.61025e-05
1.61028e-05
1.61032e-05
1.61034e-05
1.61057e-05
1.61027e-05
1.61029e-05
1.61024e-05
1.6102e-05
1.61016e-05
1.61013e-05
1.61011e-05
1.6101e-05
1.6101e-05
1.61011e-05
1.61011e-05
1.61012e-05
1.61013e-05
1.61014e-05
1.61014e-05
1.61015e-05
1.61015e-05
1.61016e-05
1.61016e-05
1.61017e-05
1.61018e-05
1.6102e-05
1.61022e-05
1.61024e-05
1.61028e-05
1.61032e-05
1.61038e-05
1.61046e-05
1.61057e-05
1.61068e-05
1.61083e-05
1.61096e-05
1.61145e-05
1.61132e-05
1.61253e-05
1.61902e-05
1.5264e-05
2.2093e-05
1.00003e-05
1e-05
1.61034e-05
1.61029e-05
1.61019e-05
1.61005e-05
1.61009e-05
1.61011e-05
1.61008e-05
1.61004e-05
1.61e-05
1.60997e-05
1.60995e-05
1.60994e-05
1.60992e-05
1.60991e-05
1.60991e-05
1.60991e-05
1.60992e-05
1.60993e-05
1.60995e-05
1.60997e-05
1.60999e-05
1.61002e-05
1.61005e-05
1.61008e-05
1.61011e-05
1.61014e-05
1.61016e-05
1.61018e-05
1.6102e-05
1.61021e-05
1.61021e-05
1.61022e-05
1.61022e-05
1.61023e-05
1.61025e-05
1.61028e-05
1.6103e-05
1.61049e-05
1.61036e-05
1.61026e-05
1.61021e-05
1.61017e-05
1.61014e-05
1.61011e-05
1.6101e-05
1.61009e-05
1.6101e-05
1.61011e-05
1.61012e-05
1.61013e-05
1.61014e-05
1.61014e-05
1.61015e-05
1.61016e-05
1.61016e-05
1.61017e-05
1.61017e-05
1.61018e-05
1.61019e-05
1.6102e-05
1.61022e-05
1.61024e-05
1.61027e-05
1.61031e-05
1.61036e-05
1.61043e-05
1.61051e-05
1.61062e-05
1.61074e-05
1.61088e-05
1.61098e-05
1.61187e-05
1.6084e-05
1.63115e-05
1.53083e-05
1.94512e-05
1.16059e-05
1.00005e-05
1.61031e-05
1.61028e-05
1.61018e-05
1.61005e-05
1.61008e-05
1.61009e-05
1.61006e-05
1.61002e-05
1.60998e-05
1.60995e-05
1.60993e-05
1.60992e-05
1.6099e-05
1.6099e-05
1.60989e-05
1.60989e-05
1.6099e-05
1.60991e-05
1.60993e-05
1.60995e-05
1.60997e-05
1.61e-05
1.61003e-05
1.61006e-05
1.61009e-05
1.61012e-05
1.61014e-05
1.61017e-05
1.61019e-05
1.6102e-05
1.61021e-05
1.61022e-05
1.61022e-05
1.61022e-05
1.61024e-05
1.61026e-05
1.61028e-05
1.6104e-05
1.61038e-05
1.61023e-05
1.61018e-05
1.61014e-05
1.61011e-05
1.61009e-05
1.61008e-05
1.61009e-05
1.6101e-05
1.61011e-05
1.61012e-05
1.61013e-05
1.61014e-05
1.61015e-05
1.61016e-05
1.61016e-05
1.61017e-05
1.61018e-05
1.61018e-05
1.61019e-05
1.6102e-05
1.61021e-05
1.61022e-05
1.61024e-05
1.61026e-05
1.61029e-05
1.61034e-05
1.6104e-05
1.61047e-05
1.61056e-05
1.61067e-05
1.61083e-05
1.61078e-05
1.61186e-05
1.60814e-05
1.62444e-05
1.57428e-05
1.69194e-05
1.68351e-05
1.00879e-05
1.61028e-05
1.61026e-05
1.61017e-05
1.61005e-05
1.61006e-05
1.61007e-05
1.61005e-05
1.61e-05
1.60996e-05
1.60994e-05
1.60992e-05
1.6099e-05
1.60989e-05
1.60988e-05
1.60988e-05
1.60988e-05
1.60988e-05
1.60989e-05
1.60991e-05
1.60993e-05
1.60995e-05
1.60998e-05
1.61001e-05
1.61004e-05
1.61007e-05
1.6101e-05
1.61013e-05
1.61015e-05
1.61017e-05
1.61019e-05
1.6102e-05
1.61021e-05
1.61022e-05
1.61022e-05
1.61023e-05
1.61024e-05
1.61026e-05
1.61036e-05
1.61036e-05
1.61021e-05
1.61016e-05
1.61011e-05
1.61009e-05
1.61008e-05
1.61008e-05
1.61009e-05
1.6101e-05
1.61011e-05
1.61013e-05
1.61014e-05
1.61015e-05
1.61016e-05
1.61017e-05
1.61017e-05
1.61018e-05
1.61019e-05
1.61019e-05
1.6102e-05
1.61021e-05
1.61022e-05
1.61023e-05
1.61025e-05
1.61026e-05
1.61029e-05
1.61033e-05
1.61038e-05
1.61044e-05
1.61052e-05
1.61061e-05
1.61076e-05
1.61074e-05
1.61146e-05
1.60974e-05
1.61523e-05
1.60766e-05
1.58729e-05
1.84899e-05
1.16996e-05
1.61025e-05
1.61024e-05
1.61016e-05
1.61004e-05
1.61005e-05
1.61005e-05
1.61003e-05
1.60999e-05
1.60995e-05
1.60992e-05
1.6099e-05
1.60989e-05
1.60987e-05
1.60986e-05
1.60986e-05
1.60986e-05
1.60987e-05
1.60988e-05
1.60989e-05
1.60991e-05
1.60993e-05
1.60996e-05
1.60999e-05
1.61002e-05
1.61005e-05
1.61008e-05
1.6101e-05
1.61013e-05
1.61015e-05
1.61017e-05
1.61019e-05
1.61021e-05
1.61021e-05
1.61022e-05
1.61022e-05
1.61023e-05
1.61025e-05
1.61033e-05
1.61033e-05
1.61018e-05
1.61013e-05
1.61009e-05
1.61008e-05
1.61007e-05
1.61008e-05
1.61009e-05
1.6101e-05
1.61012e-05
1.61013e-05
1.61014e-05
1.61016e-05
1.61017e-05
1.61018e-05
1.61018e-05
1.61019e-05
1.6102e-05
1.61021e-05
1.61021e-05
1.61022e-05
1.61023e-05
1.61024e-05
1.61026e-05
1.61027e-05
1.61029e-05
1.61032e-05
1.61037e-05
1.61042e-05
1.61049e-05
1.61057e-05
1.61069e-05
1.61075e-05
1.61104e-05
1.611e-05
1.6104e-05
1.61948e-05
1.57315e-05
1.75747e-05
1.46043e-05
1.61023e-05
1.61022e-05
1.61015e-05
1.61003e-05
1.61003e-05
1.61004e-05
1.61001e-05
1.60997e-05
1.60993e-05
1.60991e-05
1.60989e-05
1.60987e-05
1.60986e-05
1.60985e-05
1.60985e-05
1.60985e-05
1.60986e-05
1.60986e-05
1.60988e-05
1.60989e-05
1.60991e-05
1.60994e-05
1.60996e-05
1.60999e-05
1.61002e-05
1.61005e-05
1.61008e-05
1.61011e-05
1.61013e-05
1.61016e-05
1.61018e-05
1.61019e-05
1.61021e-05
1.61022e-05
1.61022e-05
1.61022e-05
1.61023e-05
1.6103e-05
1.6103e-05
1.61016e-05
1.61011e-05
1.61007e-05
1.61007e-05
1.61007e-05
1.61007e-05
1.61009e-05
1.6101e-05
1.61012e-05
1.61013e-05
1.61015e-05
1.61016e-05
1.61017e-05
1.61019e-05
1.61019e-05
1.6102e-05
1.61021e-05
1.61022e-05
1.61023e-05
1.61023e-05
1.61024e-05
1.61025e-05
1.61027e-05
1.61028e-05
1.6103e-05
1.61033e-05
1.61036e-05
1.61041e-05
1.61047e-05
1.61054e-05
1.61063e-05
1.61075e-05
1.61081e-05
1.61139e-05
1.60944e-05
1.61855e-05
1.58916e-05
1.66155e-05
1.61536e-05
1.6102e-05
1.6102e-05
1.61014e-05
1.61003e-05
1.61002e-05
1.61002e-05
1.60999e-05
1.60995e-05
1.60992e-05
1.60989e-05
1.60987e-05
1.60985e-05
1.60984e-05
1.60984e-05
1.60984e-05
1.60984e-05
1.60984e-05
1.60985e-05
1.60986e-05
1.60988e-05
1.60989e-05
1.60992e-05
1.60994e-05
1.60997e-05
1.61e-05
1.61003e-05
1.61006e-05
1.61008e-05
1.61011e-05
1.61014e-05
1.61016e-05
1.61018e-05
1.6102e-05
1.61021e-05
1.61022e-05
1.61022e-05
1.61022e-05
1.61028e-05
1.61028e-05
1.61014e-05
1.6101e-05
1.61006e-05
1.61006e-05
1.61006e-05
1.61007e-05
1.61009e-05
1.61011e-05
1.61012e-05
1.61014e-05
1.61016e-05
1.61017e-05
1.61018e-05
1.61019e-05
1.61021e-05
1.61022e-05
1.61022e-05
1.61023e-05
1.61024e-05
1.61025e-05
1.61026e-05
1.61027e-05
1.61028e-05
1.61029e-05
1.61031e-05
1.61033e-05
1.61036e-05
1.6104e-05
1.61046e-05
1.61052e-05
1.6106e-05
1.61072e-05
1.61074e-05
1.61126e-05
1.61003e-05
1.61461e-05
1.60442e-05
1.61711e-05
1.64169e-05
1.61018e-05
1.61018e-05
1.61013e-05
1.61002e-05
1.61001e-05
1.61e-05
1.60997e-05
1.60993e-05
1.6099e-05
1.60988e-05
1.60985e-05
1.60984e-05
1.60983e-05
1.60982e-05
1.60982e-05
1.60982e-05
1.60983e-05
1.60983e-05
1.60985e-05
1.60986e-05
1.60988e-05
1.6099e-05
1.60992e-05
1.60995e-05
1.60998e-05
1.61e-05
1.61003e-05
1.61006e-05
1.61009e-05
1.61011e-05
1.61014e-05
1.61016e-05
1.61018e-05
1.6102e-05
1.61021e-05
1.61021e-05
1.61022e-05
1.61027e-05
1.61027e-05
1.61012e-05
1.61008e-05
1.61005e-05
1.61005e-05
1.61006e-05
1.61007e-05
1.61009e-05
1.61011e-05
1.61013e-05
1.61014e-05
1.61016e-05
1.61018e-05
1.61019e-05
1.6102e-05
1.61022e-05
1.61023e-05
1.61024e-05
1.61025e-05
1.61025e-05
1.61026e-05
1.61027e-05
1.61028e-05
1.61029e-05
1.6103e-05
1.61032e-05
1.61034e-05
1.61037e-05
1.6104e-05
1.61045e-05
1.61051e-05
1.61058e-05
1.61068e-05
1.61073e-05
1.61103e-05
1.61068e-05
1.61194e-05
1.61138e-05
1.60618e-05
1.62857e-05
1.61015e-05
1.61016e-05
1.61011e-05
1.61001e-05
1.60999e-05
1.60998e-05
1.60995e-05
1.60992e-05
1.60988e-05
1.60986e-05
1.60984e-05
1.60982e-05
1.60982e-05
1.60981e-05
1.60981e-05
1.60981e-05
1.60981e-05
1.60982e-05
1.60983e-05
1.60984e-05
1.60986e-05
1.60988e-05
1.6099e-05
1.60993e-05
1.60995e-05
1.60998e-05
1.61001e-05
1.61004e-05
1.61006e-05
1.61009e-05
1.61012e-05
1.61014e-05
1.61016e-05
1.61018e-05
1.6102e-05
1.61021e-05
1.61021e-05
1.61025e-05
1.61026e-05
1.6101e-05
1.61007e-05
1.61004e-05
1.61005e-05
1.61006e-05
1.61007e-05
1.61009e-05
1.61011e-05
1.61013e-05
1.61015e-05
1.61017e-05
1.61018e-05
1.6102e-05
1.61021e-05
1.61023e-05
1.61024e-05
1.61025e-05
1.61026e-05
1.61027e-05
1.61028e-05
1.61029e-05
1.6103e-05
1.61031e-05
1.61032e-05
1.61033e-05
1.61035e-05
1.61038e-05
1.61041e-05
1.61045e-05
1.6105e-05
1.61056e-05
1.61065e-05
1.61072e-05
1.61088e-05
1.61098e-05
1.61095e-05
1.61273e-05
1.6074e-05
1.6165e-05
1.61013e-05
1.61014e-05
1.61009e-05
1.61e-05
1.60998e-05
1.60996e-05
1.60993e-05
1.6099e-05
1.60986e-05
1.60984e-05
1.60982e-05
1.60981e-05
1.6098e-05
1.6098e-05
1.60979e-05
1.60979e-05
1.6098e-05
1.6098e-05
1.60981e-05
1.60982e-05
1.60984e-05
1.60986e-05
1.60988e-05
1.6099e-05
1.60993e-05
1.60996e-05
1.60998e-05
1.61001e-05
1.61004e-05
1.61007e-05
1.61009e-05
1.61012e-05
1.61015e-05
1.61017e-05
1.61019e-05
1.6102e-05
1.6102e-05
1.61023e-05
1.61024e-05
1.61008e-05
1.61006e-05
1.61003e-05
1.61004e-05
1.61006e-05
1.61007e-05
1.61009e-05
1.61011e-05
1.61013e-05
1.61015e-05
1.61017e-05
1.61019e-05
1.61021e-05
1.61022e-05
1.61024e-05
1.61025e-05
1.61026e-05
1.61027e-05
1.61028e-05
1.61029e-05
1.6103e-05
1.61031e-05
1.61032e-05
1.61034e-05
1.61035e-05
1.61037e-05
1.61039e-05
1.61042e-05
1.61045e-05
1.6105e-05
1.61056e-05
1.61063e-05
1.61071e-05
1.6108e-05
1.61102e-05
1.61082e-05
1.61215e-05
1.61005e-05
1.61177e-05
1.61011e-05
1.61012e-05
1.61008e-05
1.60999e-05
1.60996e-05
1.60994e-05
1.60991e-05
1.60988e-05
1.60985e-05
1.60982e-05
1.60981e-05
1.60979e-05
1.60978e-05
1.60978e-05
1.60978e-05
1.60978e-05
1.60978e-05
1.60979e-05
1.6098e-05
1.60981e-05
1.60982e-05
1.60984e-05
1.60986e-05
1.60988e-05
1.60991e-05
1.60993e-05
1.60996e-05
1.60999e-05
1.61001e-05
1.61004e-05
1.61007e-05
1.6101e-05
1.61013e-05
1.61015e-05
1.61017e-05
1.61019e-05
1.61019e-05
1.61021e-05
1.61023e-05
1.61007e-05
1.61004e-05
1.61003e-05
1.61004e-05
1.61005e-05
1.61007e-05
1.61009e-05
1.61012e-05
1.61014e-05
1.61016e-05
1.61018e-05
1.6102e-05
1.61022e-05
1.61023e-05
1.61025e-05
1.61026e-05
1.61027e-05
1.61028e-05
1.6103e-05
1.61031e-05
1.61032e-05
1.61033e-05
1.61034e-05
1.61035e-05
1.61037e-05
1.61038e-05
1.6104e-05
1.61043e-05
1.61046e-05
1.6105e-05
1.61055e-05
1.61061e-05
1.6107e-05
1.61077e-05
1.61096e-05
1.61092e-05
1.61151e-05
1.61132e-05
1.61109e-05
1.61009e-05
1.6101e-05
1.61006e-05
1.60998e-05
1.60995e-05
1.60993e-05
1.60989e-05
1.60986e-05
1.60983e-05
1.6098e-05
1.60979e-05
1.60978e-05
1.60977e-05
1.60976e-05
1.60976e-05
1.60976e-05
1.60977e-05
1.60977e-05
1.60978e-05
1.60979e-05
1.6098e-05
1.60982e-05
1.60984e-05
1.60986e-05
1.60988e-05
1.60991e-05
1.60993e-05
1.60996e-05
1.60999e-05
1.61002e-05
1.61004e-05
1.61007e-05
1.6101e-05
1.61013e-05
1.61015e-05
1.61017e-05
1.61018e-05
1.6102e-05
1.61021e-05
1.61005e-05
1.61003e-05
1.61002e-05
1.61004e-05
1.61005e-05
1.61007e-05
1.61009e-05
1.61012e-05
1.61014e-05
1.61016e-05
1.61019e-05
1.61021e-05
1.61022e-05
1.61024e-05
1.61026e-05
1.61027e-05
1.61028e-05
1.6103e-05
1.61031e-05
1.61032e-05
1.61033e-05
1.61035e-05
1.61036e-05
1.61037e-05
1.61038e-05
1.6104e-05
1.61042e-05
1.61044e-05
1.61047e-05
1.61051e-05
1.61055e-05
1.61061e-05
1.61068e-05
1.61076e-05
1.6109e-05
1.61098e-05
1.61121e-05
1.61153e-05
1.61143e-05
1.61007e-05
1.61008e-05
1.61004e-05
1.60996e-05
1.60993e-05
1.60991e-05
1.60987e-05
1.60984e-05
1.60981e-05
1.60979e-05
1.60977e-05
1.60976e-05
1.60975e-05
1.60975e-05
1.60974e-05
1.60975e-05
1.60975e-05
1.60975e-05
1.60976e-05
1.60977e-05
1.60978e-05
1.6098e-05
1.60982e-05
1.60984e-05
1.60986e-05
1.60988e-05
1.60991e-05
1.60993e-05
1.60996e-05
1.60999e-05
1.61002e-05
1.61005e-05
1.61008e-05
1.61011e-05
1.61013e-05
1.61015e-05
1.61017e-05
1.61018e-05
1.6102e-05
1.61004e-05
1.61002e-05
1.61001e-05
1.61003e-05
1.61005e-05
1.61007e-05
1.6101e-05
1.61012e-05
1.61015e-05
1.61017e-05
1.61019e-05
1.61021e-05
1.61023e-05
1.61025e-05
1.61027e-05
1.61028e-05
1.6103e-05
1.61031e-05
1.61032e-05
1.61034e-05
1.61035e-05
1.61036e-05
1.61038e-05
1.61039e-05
1.6104e-05
1.61042e-05
1.61043e-05
1.61046e-05
1.61048e-05
1.61052e-05
1.61056e-05
1.61061e-05
1.61068e-05
1.61075e-05
1.61086e-05
1.61098e-05
1.61112e-05
1.61139e-05
1.61167e-05
1.61005e-05
1.61006e-05
1.61003e-05
1.60995e-05
1.60991e-05
1.60989e-05
1.60985e-05
1.60982e-05
1.60979e-05
1.60977e-05
1.60975e-05
1.60974e-05
1.60973e-05
1.60973e-05
1.60973e-05
1.60973e-05
1.60973e-05
1.60974e-05
1.60974e-05
1.60975e-05
1.60976e-05
1.60978e-05
1.60979e-05
1.60981e-05
1.60983e-05
1.60986e-05
1.60988e-05
1.6099e-05
1.60993e-05
1.60996e-05
1.60999e-05
1.61002e-05
1.61005e-05
1.61008e-05
1.61011e-05
1.61013e-05
1.61015e-05
1.61016e-05
1.61018e-05
1.61002e-05
1.61001e-05
1.61e-05
1.61003e-05
1.61005e-05
1.61007e-05
1.6101e-05
1.61012e-05
1.61015e-05
1.61017e-05
1.6102e-05
1.61022e-05
1.61024e-05
1.61026e-05
1.61028e-05
1.61029e-05
1.61031e-05
1.61032e-05
1.61034e-05
1.61035e-05
1.61037e-05
1.61038e-05
1.61039e-05
1.61041e-05
1.61042e-05
1.61044e-05
1.61045e-05
1.61047e-05
1.6105e-05
1.61053e-05
1.61057e-05
1.61062e-05
1.61067e-05
1.61075e-05
1.61084e-05
1.61095e-05
1.61111e-05
1.61125e-05
1.61168e-05
1.61004e-05
1.61004e-05
1.61001e-05
1.60993e-05
1.60989e-05
1.60986e-05
1.60983e-05
1.60979e-05
1.60976e-05
1.60974e-05
1.60973e-05
1.60972e-05
1.60971e-05
1.60971e-05
1.60971e-05
1.60971e-05
1.60971e-05
1.60972e-05
1.60972e-05
1.60973e-05
1.60974e-05
1.60975e-05
1.60977e-05
1.60979e-05
1.60981e-05
1.60983e-05
1.60985e-05
1.60988e-05
1.6099e-05
1.60993e-05
1.60996e-05
1.60999e-05
1.61002e-05
1.61005e-05
1.61008e-05
1.61011e-05
1.61013e-05
1.61014e-05
1.61017e-05
1.61001e-05
1.61e-05
1.61e-05
1.61002e-05
1.61004e-05
1.61007e-05
1.6101e-05
1.61013e-05
1.61015e-05
1.61018e-05
1.6102e-05
1.61022e-05
1.61025e-05
1.61027e-05
1.61028e-05
1.6103e-05
1.61032e-05
1.61034e-05
1.61035e-05
1.61037e-05
1.61038e-05
1.6104e-05
1.61041e-05
1.61043e-05
1.61044e-05
1.61045e-05
1.61047e-05
1.61049e-05
1.61051e-05
1.61054e-05
1.61058e-05
1.61062e-05
1.61068e-05
1.61075e-05
1.61083e-05
1.61093e-05
1.61109e-05
1.61117e-05
1.6116e-05
1.61002e-05
1.61002e-05
1.60999e-05
1.60991e-05
1.60987e-05
1.60984e-05
1.60981e-05
1.60977e-05
1.60974e-05
1.60972e-05
1.60971e-05
1.6097e-05
1.60969e-05
1.60969e-05
1.60969e-05
1.60969e-05
1.60969e-05
1.6097e-05
1.6097e-05
1.60971e-05
1.60972e-05
1.60973e-05
1.60974e-05
1.60976e-05
1.60978e-05
1.6098e-05
1.60982e-05
1.60985e-05
1.60987e-05
1.6099e-05
1.60993e-05
1.60996e-05
1.60999e-05
1.61002e-05
1.61005e-05
1.61008e-05
1.61011e-05
1.61012e-05
1.61016e-05
1.61e-05
1.60999e-05
1.60999e-05
1.61002e-05
1.61004e-05
1.61007e-05
1.6101e-05
1.61013e-05
1.61015e-05
1.61018e-05
1.61021e-05
1.61023e-05
1.61025e-05
1.61027e-05
1.61029e-05
1.61031e-05
1.61033e-05
1.61035e-05
1.61036e-05
1.61038e-05
1.6104e-05
1.61041e-05
1.61043e-05
1.61044e-05
1.61046e-05
1.61047e-05
1.61049e-05
1.61051e-05
1.61053e-05
1.61056e-05
1.61059e-05
1.61063e-05
1.61068e-05
1.61075e-05
1.61083e-05
1.61092e-05
1.61108e-05
1.61114e-05
1.61152e-05
1.61e-05
1.61e-05
1.60997e-05
1.6099e-05
1.60985e-05
1.60982e-05
1.60978e-05
1.60975e-05
1.60972e-05
1.6097e-05
1.60968e-05
1.60967e-05
1.60967e-05
1.60967e-05
1.60966e-05
1.60967e-05
1.60967e-05
1.60967e-05
1.60968e-05
1.60968e-05
1.60969e-05
1.6097e-05
1.60972e-05
1.60973e-05
1.60975e-05
1.60977e-05
1.60979e-05
1.60981e-05