/*--------------------------------*- C++ -*----------------------------------*\
| =========                 |                                                 |
| \\      /  F ield         | OpenFOAM: The Open Source CFD Toolbox           |
|  \\    /   O peration     | Version:  2312                                  |
|   \\  /    A nd           | Website:  www.openfoam.com                      |
|    \\/     M anipulation  |                                                 |
\*---------------------------------------------------------------------------*/
FoamFile
{
    version     2.0;
    format      ascii;
    arch        "LSB;label=32;scalar=64";
    class       volSymmTensorField;
    location    "500";
    object      turbulenceProperties:devReff;
}
// * * * * * * * * * * * * * * * * * * * * * * * * * * * * * * * * * * * * * //

dimensions      [0 2 -2 0 0 0 0];

internalField   nonuniform List<symmTensor> 
10720
(
(0.00163714 0.0042578 -1.66572e-21 -0.00177373 -6.2276e-20 0.000136594)
(0.00238852 0.00488003 1.07211e-21 -0.00248646 6.81596e-20 9.79404e-05)
(0.00361105 0.00546063 1.60024e-20 -0.00380828 6.76663e-20 0.000197225)
(0.00524592 0.00621488 7.50521e-20 -0.0054919 6.12539e-19 0.00024598)
(0.00742492 0.0068734 -3.04662e-19 -0.00769356 -1.22058e-18 0.000268644)
(0.0104039 0.00726187 -3.61563e-19 -0.0107954 -7.36977e-19 0.000391442)
(0.014299 0.00737459 1.27666e-19 -0.0147853 1.23369e-20 0.000486257)
(0.0191876 0.00685905 6.94156e-20 -0.0197702 1.09758e-19 0.000582586)
(0.0252391 0.00535157 1.80812e-19 -0.0259856 -1.46054e-19 0.000746564)
(0.0325645 0.00260623 -2.77722e-20 -0.0334649 -2.78636e-20 0.000900455)
(0.0413422 -0.00189799 3.18764e-18 -0.0424336 1.28515e-18 0.00109149)
(0.0519596 -0.008734 -7.59289e-19 -0.0532774 -5.83159e-19 0.00131783)
(0.0649577 -0.0188219 1.53573e-18 -0.0665509 -2.30574e-18 0.00159319)
(0.0812469 -0.0337492 7.49125e-19 -0.0832017 1.60734e-18 0.00195482)
(0.102368 -0.056169 1.17576e-18 -0.104834 -2.0845e-18 0.00246626)
(0.13053 -0.0904044 4.81388e-19 -0.133705 7.33968e-18 0.00317454)
(0.169882 -0.14506 3.69803e-17 -0.174189 1.96897e-17 0.00430664)
(0.224283 -0.232428 -1.03626e-17 -0.230163 1.39408e-17 0.00588053)
(0.310931 -0.388887 -4.15168e-18 -0.319546 -6.73847e-17 0.00861517)
(0.426458 -0.641768 2.22492e-18 -0.438633 -4.33812e-19 0.0121751)
(0.666821 -1.21422 -6.59677e-17 -0.686217 -8.97238e-17 0.019396)
(0.945561 -2.1145 1.57428e-16 -0.971678 4.77215e-16 0.0261172)
(1.76553 -5.12866 -2.57329e-16 -1.81768 -9.31514e-16 0.0521567)
(2.42845 -10.3119 4.53061e-16 -2.51197 1.24268e-16 0.0835176)
(1.5287 -11.6494 -2.48601e-16 -1.56996 -1.19284e-17 0.0412521)
(0.526933 -11.2315 2.09894e-17 -0.515578 -1.28057e-15 -0.011355)
(-0.145567 -11.0469 2.70115e-16 0.175387 -6.42703e-17 -0.0298204)
(-0.664899 -11.2292 1.95551e-16 0.689722 4.12507e-16 -0.0248229)
(-1.13635 -11.4427 1.14984e-15 1.15282 5.6017e-16 -0.0164653)
(-1.57184 -11.4553 1.04816e-15 1.58021 4.51102e-15 -0.00836766)
(-1.95801 -11.241 -2.01201e-15 1.95631 -1.73972e-15 0.00170419)
(-2.27374 -10.8346 -2.17681e-15 2.26326 -3.02264e-15 0.010473)
(-2.49378 -10.2212 -9.24821e-16 2.47884 -3.97086e-15 0.0149352)
(-2.60531 -9.41447 -2.96475e-15 2.58994 -5.5815e-15 0.0153735)
(-2.58945 -8.40625 1.07416e-15 2.57524 2.92195e-15 0.0142077)
(-2.43552 -7.22757 1.80092e-16 2.42451 2.16273e-15 0.0110186)
(-2.07422 -5.67392 -4.60256e-17 2.06078 3.65258e-18 0.0134443)
(-1.58674 -4.17201 -1.78697e-15 1.58502 -1.07499e-16 0.00171879)
(-0.47267 -0.926877 -3.59765e-16 0.473459 -1.68948e-15 -0.000788691)
(0.000968053 0.00371302 1.24941e-21 -0.00101994 -4.47053e-21 5.18854e-05)
(0.000549692 0.00319714 -6.73451e-21 -0.000639717 6.84008e-21 9.00254e-05)
(0.000179309 0.0026111 -3.69106e-20 -0.000226376 -2.56711e-20 4.70666e-05)
(-6.70777e-05 0.00208971 3.82719e-20 3.29498e-05 -5.46571e-20 3.4128e-05)
(-0.000179259 0.0015969 -4.7088e-20 0.000160971 -4.67832e-20 1.82875e-05)
(-0.000172606 0.0011672 -2.41175e-19 0.000173002 2.92866e-19 -3.96053e-07)
(-8.40094e-05 0.000835303 8.15697e-20 0.000108118 2.73127e-19 -2.41081e-05)
(5.47826e-05 0.000636923 -4.33389e-20 -1.70843e-05 -3.8964e-19 -3.76983e-05)
(0.000231361 0.000621222 2.00691e-19 -0.000204967 4.9092e-21 -2.63941e-05)
(0.000471317 0.000742215 -1.48195e-19 -0.000468026 -4.26214e-20 -3.29055e-06)
(0.000812378 0.00102678 1.27497e-19 -0.000823022 3.07361e-19 1.06435e-05)
(0.00130644 0.0015664 2.60633e-19 -0.00132442 -1.22026e-19 1.79829e-05)
(0.00202428 0.00252565 -2.5943e-19 -0.00205445 -7.47306e-20 3.01701e-05)
(0.00305565 0.00413713 1.60701e-20 -0.00310695 1.13857e-19 5.13004e-05)
(0.00447309 0.00664461 9.41268e-19 -0.00454803 2.00119e-19 7.49414e-05)
(0.00629922 0.0103377 9.02049e-19 -0.00640793 -1.90444e-19 0.000108705)
(0.00863913 0.015635 4.08408e-19 -0.00878489 6.3682e-19 0.000145755)
(0.0117401 0.0234246 2.96092e-19 -0.0119383 6.29255e-19 0.000198175)
(0.0161482 0.0354501 3.13215e-19 -0.0164165 -1.76925e-19 0.000268372)
(0.0226884 0.0549988 5.9116e-19 -0.0230789 2.58796e-20 0.000390542)
(0.0329407 0.0886168 -8.8906e-19 -0.0335316 -5.39253e-18 0.000590926)
(0.0490728 0.148528 -3.1297e-18 -0.0500522 -1.03047e-19 0.000979406)
(0.0757041 0.263753 2.96789e-18 -0.0774819 5.23867e-18 0.00177781)
(0.116282 0.487769 2.14029e-18 -0.119918 -5.65604e-19 0.00363662)
(0.183243 0.97945 7.47145e-17 -0.191089 -1.51612e-17 0.00784627)
(0.277943 2.01763 -1.11726e-18 -0.294318 -1.16252e-17 0.016375)
(0.410053 4.53273 1.98062e-19 -0.448528 7.29993e-18 0.038475)
(0.421167 9.36904 2.27242e-18 -0.501475 -6.98135e-20 0.0803079)
(0.00812324 13.292 3.31605e-19 -0.112266 4.4908e-21 0.104143)
(-0.628749 14.9598 3.64893e-16 0.530418 5.08734e-18 0.0983315)
(-1.26785 15.3986 -4.20127e-18 1.18561 -2.17095e-19 0.0822438)
(-1.85323 15.4185 -2.64558e-17 1.78589 3.60827e-17 0.0673381)
(-2.3774 15.2563 -2.2431e-15 2.3216 -1.86774e-16 0.0557948)
(-2.83317 14.9562 -4.02514e-15 2.78626 -2.5895e-16 0.0469018)
(-3.21856 14.534 3.58627e-15 3.17823 3.9133e-16 0.0403269)
(-3.53765 14.011 -2.69051e-17 3.50239 1.37032e-16 0.0352633)
(-3.77532 13.2878 1.36003e-18 3.74324 -5.27348e-16 0.0320889)
(-3.91954 12.4706 -1.93954e-16 3.88955 2.82951e-16 0.0299977)
(-3.64019 10.0664 -3.51066e-15 3.63357 1.25578e-16 0.00661028)
(0.000579433 -0.000460528 -4.14397e-21 -0.00052005 -1.26832e-20 -5.93829e-05)
(0.000492605 -0.000547355 7.54253e-21 -0.000425489 1.70775e-20 -6.7116e-05)
(0.000371416 -0.000622949 -3.36969e-22 -0.000291097 4.85185e-23 -8.03188e-05)
(0.000250519 -0.000652178 1.57193e-20 -0.00015859 2.33496e-21 -9.1929e-05)
(0.00013315 -0.00064511 1.07484e-20 -3.25566e-05 9.34032e-20 -0.000100593)
(2.31411e-05 -0.000610485 7.12146e-20 8.61801e-05 1.2453e-19 -0.000109321)
(-6.02899e-05 -0.000551403 -3.56511e-20 0.000177198 5.74093e-21 -0.000116908)
(-0.000116636 -0.000479008 -3.00488e-20 0.000238471 -7.88966e-21 -0.000121835)
(-0.000149303 -0.000404777 -1.69118e-19 0.000274582 -1.86822e-19 -0.000125279)
(-0.000158012 -0.000336002 -5.64479e-20 0.000285259 -1.85956e-20 -0.000127247)
(-0.000150112 -0.000278307 -4.89679e-19 0.000277009 -4.78317e-19 -0.000126896)
(-0.000132662 -0.000239949 -5.85708e-21 0.00025889 8.03425e-20 -0.000126227)
(-0.000110888 -0.000226119 -2.60705e-19 0.000240754 7.69633e-21 -0.000129866)
(-8.62532e-05 -0.000245789 1.93964e-19 0.000231114 1.15277e-19 -0.000144861)
(-4.85459e-05 -0.000344624 -5.27922e-19 0.000241479 -1.53936e-19 -0.000192933)
(6.24935e-05 -0.000658588 1.92827e-18 0.000258285 4.67358e-19 -0.000320778)
(0.000455367 -0.00154868 -3.34818e-18 0.00014214 -2.91e-18 -0.000597507)
(0.00150271 -0.00355043 -5.74576e-18 -0.00049941 -2.32801e-18 -0.0010033)
(0.00420822 -0.00868236 -1.19289e-17 -0.00253915 5.03134e-18 -0.00166906)
(0.0104936 -0.0211736 2.34466e-18 -0.00790749 -2.05278e-20 -0.0025861)
(0.0294583 -0.0624796 2.18471e-17 -0.0250518 3.22336e-17 -0.00440648)
(0.0738264 -0.17412 -4.15451e-17 -0.0676292 -1.26483e-16 -0.00619717)
(0.194125 -0.542505 -2.20321e-18 -0.186372 2.26382e-16 -0.00775291)
(0.503104 -1.77878 5.20549e-18 -0.500335 -8.71896e-17 -0.00276951)
(0.748715 -3.54481 -0 -0.77235 -0 0.023635)
(0.790412 -5.39726 -2.56233e-17 -0.844656 6.08333e-16 0.0542435)
(0.603888 -7.15257 -6.8247e-17 -0.675665 4.69277e-17 0.0717767)
(0.204238 -8.39564 -1.107e-16 -0.279782 -4.75993e-16 0.0755432)
(-0.295761 -8.63656 -9.74209e-16 0.22972 -2.62867e-15 0.0660413)
(-0.707251 -7.89757 3.8788e-16 0.665994 -8.29578e-15 0.0412565)
(-0.931293 -6.69183 -1.09085e-16 0.922873 5.63885e-15 0.00841986)
(-0.998263 -5.47786 -3.38883e-16 1.01641 7.39076e-15 -0.0181475)
(-0.984383 -4.49816 -2.19875e-15 1.01416 4.27031e-15 -0.0297811)
(-0.930828 -3.75345 6.48145e-15 0.960461 1.54326e-14 -0.0296331)
(-0.863833 -3.1864 -4.13386e-16 0.887841 -2.76528e-15 -0.0240075)
(-0.78159 -2.74348 6.23885e-15 0.802074 -3.67484e-15 -0.0204842)
(-0.730878 -2.43227 -2.24026e-16 0.74425 4.92611e-17 -0.0133723)
(-0.56038 -2.13707 3.17479e-15 0.595672 7.05267e-16 -0.0352916)
(-0.787265 -2.25514 5.72238e-15 0.698307 6.56156e-15 0.0889583)
(0.000645655 -0.000345009 4.77935e-21 -0.000595427 1.5642e-20 -5.02282e-05)
(0.00068442 -0.000224612 -3.06719e-21 -0.00063747 -6.55518e-20 -4.69502e-05)
(0.000691694 -7.63942e-05 -4.11808e-20 -0.000654663 -1.37243e-19 -3.70304e-05)
(0.000654249 8.66811e-05 7.57661e-21 -0.000627664 1.94422e-19 -2.65843e-05)
(0.000565078 0.000235301 8.96746e-20 -0.000550956 -8.44997e-20 -1.41215e-05)
(0.000429276 0.000348908 -2.54476e-20 -0.000425619 -1.38469e-19 -3.65731e-06)
(0.000271226 0.00040598 1.3768e-19 -0.00027464 -2.98137e-19 3.41365e-06)
(0.000131122 0.000406958 -2.33457e-19 -0.000140194 -3.16311e-20 9.07272e-06)
(2.28719e-05 0.000374119 -1.28314e-19 -3.33814e-05 2.91658e-19 1.05095e-05)
(-6.63161e-05 0.000316361 -3.91108e-20 6.0091e-05 -1.49402e-20 6.22507e-06)
(-0.000121767 0.000243629 -6.44649e-20 0.000123187 -1.47644e-19 -1.42012e-06)
(-0.000141757 0.000176672 1.34059e-20 0.00015008 -7.86547e-20 -8.32286e-06)
(-0.000139971 0.000124397 5.41064e-20 0.000152778 1.38935e-19 -1.28068e-05)
(-0.00012757 8.66286e-05 -4.75612e-20 0.000142839 -3.23761e-20 -1.52691e-05)
(-0.000111044 6.08898e-05 -2.77625e-20 0.000127502 -9.94331e-20 -1.64583e-05)
(-9.41908e-05 4.40024e-05 -9.91299e-20 0.000110951 -3.02666e-20 -1.67605e-05)
(-7.86826e-05 3.33876e-05 -1.76352e-20 9.51006e-05 -2.30895e-22 -1.6418e-05)
(-6.53908e-05 2.68724e-05 -1.13691e-21 8.10452e-05 -1.02365e-20 -1.56544e-05)
(-5.43344e-05 2.27331e-05 -1.13179e-20 6.89939e-05 8.15285e-21 -1.46595e-05)
(-4.52858e-05 1.99641e-05 1.97217e-20 5.8919e-05 -6.73685e-21 -1.36333e-05)
(-3.79975e-05 1.79326e-05 -1.19579e-19 5.07309e-05 8.84923e-20 -1.27334e-05)
(-3.26724e-05 1.64692e-05 -2.5463e-20 4.49201e-05 5.27697e-21 -1.22477e-05)
(-2.91895e-05 1.55186e-05 -9.32572e-22 4.16893e-05 -2.38764e-20 -1.24997e-05)
(-2.68697e-05 1.54958e-05 1.1335e-19 4.05156e-05 6.28987e-21 -1.36459e-05)
(-2.46032e-05 1.7263e-05 -9.84259e-20 3.96875e-05 8.41969e-21 -1.50843e-05)
(-0.000235312 0.000213507 -9.61597e-19 0.000404617 2.11455e-19 -0.000169305)
(-0.0011975 0.0013569 -8.18078e-20 0.00216781 -1.2381e-19 -0.000970302)
(-0.00866896 0.0119941 -6.57587e-21 0.0162508 -3.44056e-19 -0.00758181)
(-0.026227 0.0459315 -4.97908e-20 0.0499595 -6.7657e-22 -0.0237326)
(-0.0449443 0.102717 2.70976e-18 0.0849991 2.25656e-18 -0.0400548)
(-0.0579723 0.170679 1.84687e-19 0.105298 -1.00834e-18 -0.0473253)
(-0.065977 0.235243 4.71439e-18 0.111231 -1.75295e-17 -0.0452536)
(-0.0730168 0.289382 2.45575e-15 0.112019 1.76549e-16 -0.0390026)
(-0.0819868 0.33494 2.30275e-15 0.11474 1.24239e-16 -0.032753)
(-0.0941528 0.375377 -2.13853e-15 0.122124 -2.52206e-16 -0.0279713)
(-0.108449 0.415565 2.0741e-15 0.133605 2.72145e-16 -0.0251555)
(-0.128785 0.456188 -3.67759e-15 0.151573 -5.42851e-16 -0.0227883)
(-0.147321 0.552322 -3.4232e-15 0.174168 -7.47151e-16 -0.0268472)
(-0.207652 0.775767 -3.41906e-15 0.197451 -1.03689e-16 0.0102007)
(0.000333681 -0.000312807 -1.56778e-21 -0.000360069 -5.64915e-21 2.63878e-05)
(0.00025836 -0.000372282 -3.36531e-20 -0.000290235 -7.93576e-20 3.1875e-05)
(0.000160851 -0.000413559 2.47496e-20 -0.000197977 5.91619e-20 3.71263e-05)
(5.20707e-05 -0.000426362 3.41401e-20 -9.69439e-05 6.46344e-20 4.48733e-05)
(-5.44254e-05 -0.000413077 6.17178e-20 3.54547e-06 8.91476e-20 5.088e-05)
(-0.000154783 -0.000372457 -1.89342e-19 9.79077e-05 -3.31395e-19 5.68754e-05)
(-0.000238945 -0.000308489 1.3259e-19 0.000175434 2.66136e-19 6.3511e-05)
(-0.000299999 -0.000230744 1.76487e-19 0.000231132 1.57476e-19 6.88671e-05)
(-0.000337765 -0.000145421 -1.01098e-20 0.000264304 2.12881e-20 7.34607e-05)
(-0.000352964 -6.11089e-05 1.06894e-19 0.000275454 1.90567e-19 7.75099e-05)
(-0.000348658 1.65899e-05 -2.31345e-19 0.000268535 -1.09456e-20 8.01225e-05)
(-0.000331378 8.3914e-05 3.14172e-19 0.000250344 3.4861e-19 8.1034e-05)
(-0.000307326 0.000139291 1.4774e-19 0.000227514 6.06689e-20 7.98127e-05)
(-0.0002814 0.000184883 7.38774e-20 0.000204167 -7.05601e-20 7.72324e-05)
(-0.000253945 0.000218673 2.11368e-19 0.000181498 2.08851e-19 7.2446e-05)
(-0.00022392 0.000237713 -5.20917e-19 0.000158972 -5.3127e-19 6.49474e-05)
(-0.000181828 0.000230201 1.17683e-19 0.000129363 1.72108e-19 5.2465e-05)
(-0.000152713 0.000223757 9.3078e-19 0.000110229 2.7305e-19 4.24843e-05)
(-0.000100142 0.000165367 2.09374e-19 7.43232e-05 1.54182e-19 2.58191e-05)
(-0.000912606 0.00164497 -6.72315e-19 0.000705895 -4.67322e-20 0.000206711)
(-0.00186581 0.00357486 1.8671e-18 0.00151933 -4.12086e-18 0.000346486)
(-0.00088847 0.00175632 2.445e-19 0.000772548 2.10823e-18 0.000115922)
(-0.000310049 0.000355335 6.57158e-18 0.000331229 -1.35094e-18 -2.11806e-05)
(0.00235653 -0.00877407 -1.06575e-17 -0.00189925 -4.44649e-18 -0.000457276)
(0.0133608 -0.0590882 2.63338e-19 -0.0113563 6.67678e-19 -0.00200451)
(0.0323748 -0.194533 -5.76288e-17 -0.0281878 1.64748e-17 -0.00418699)
(0.053215 -0.491147 2.00619e-17 -0.047204 8.28944e-18 -0.00601096)
(0.0635981 -1.10951 -2.54917e-17 -0.0564146 -2.10993e-18 -0.00718358)
(0.0252646 -2.19965 -6.35336e-16 -0.0184814 6.49088e-16 -0.00678324)
(-0.11996 -3.63223 -1.0839e-15 0.123127 3.35117e-17 -0.00316661)
(-0.3873 -4.91503 3.90356e-15 0.382063 -1.14988e-15 0.00523675)
(-0.691828 -5.52438 3.18464e-15 0.677368 1.73679e-15 0.0144601)
(-0.90556 -5.3673 -1.54648e-16 0.88979 4.2999e-15 0.0157704)
(-0.983119 -4.78724 6.63688e-15 0.974698 -5.04368e-15 0.00842088)
(-0.964894 -4.12834 5.15973e-15 0.963407 -2.92455e-15 0.00148693)
(-0.87854 -3.5238 -9.57915e-15 0.881511 -3.55033e-15 -0.0029718)
(-0.798617 -3.05352 -2.70153e-17 0.797694 -1.68912e-15 0.000923164)
(-0.531502 -2.55648 6.26813e-15 0.547585 -1.58454e-15 -0.0160825)
(-0.843936 -2.81465 -1.30991e-14 0.825936 4.22424e-15 0.0180005)
(0.000395295 -0.000236804 -7.38059e-21 -0.000419381 -1.78436e-20 2.40862e-05)
(0.000435596 -0.000154352 -6.13634e-21 -0.000454967 -6.72823e-21 1.93711e-05)
(0.000460048 -5.32793e-05 5.53815e-20 -0.000474973 9.697e-20 1.49256e-05)
(0.000454763 5.43798e-05 -3.34296e-20 -0.000464206 -1.63591e-21 9.44311e-06)
(0.000415687 0.000160468 7.97049e-21 -0.000421151 4.17958e-20 5.46417e-06)
(0.000342124 0.00024805 -1.30393e-20 -0.000344105 1.32278e-19 1.98094e-06)
(0.000244197 0.00030301 -3.00847e-20 -0.00024389 1.25297e-19 -3.06874e-07)
(0.000141061 0.000319908 3.5131e-19 -0.000141807 2.53563e-19 7.46269e-07)
(4.81368e-05 0.000309274 5.242e-20 -4.95977e-05 -6.88513e-20 1.46092e-06)
(-2.83436e-05 0.000273934 1.87372e-19 2.72881e-05 2.44828e-20 1.05543e-06)
(-7.85704e-05 0.000221402 -1.45795e-19 7.72411e-05 -9.78833e-20 1.32923e-06)
(-0.00010266 0.000166969 -1.05122e-19 0.000100154 1.61359e-19 2.50592e-06)
(-0.000108698 0.000119366 1.13139e-19 0.000104634 -5.72653e-20 4.06422e-06)
(-0.000104073 8.10065e-05 9.28409e-20 9.83161e-05 -3.39084e-22 5.75728e-06)
(-9.40452e-05 5.20543e-05 -6.68142e-20 8.68706e-05 6.44452e-20 7.1746e-06)
(-8.20395e-05 3.10429e-05 -4.81025e-20 7.36758e-05 1.16093e-19 8.36377e-06)
(-7.02287e-05 1.64114e-05 1.16343e-19 6.10086e-05 -7.13082e-20 9.22007e-06)
(-5.97404e-05 6.31476e-06 1.07998e-19 4.98982e-05 -1.97229e-20 9.84216e-06)
(-5.10626e-05 -7.6237e-07 4.22381e-20 4.08714e-05 -3.74496e-21 1.01913e-05)
(-4.39374e-05 -6.08771e-06 -1.42368e-20 3.34928e-05 5.26818e-20 1.04446e-05)
(-3.80777e-05 -1.0408e-05 1.99676e-19 2.74927e-05 2.46834e-20 1.0585e-05)
(-3.29294e-05 -1.44532e-05 7.91507e-21 2.21557e-05 -3.67106e-20 1.07737e-05)
(-2.77599e-05 -1.86722e-05 -6.31716e-22 1.66897e-05 -2.35933e-21 1.10701e-05)
(-2.10892e-05 -2.26159e-05 -4.34455e-21 9.23588e-06 -2.53992e-20 1.18533e-05)
(-1.29581e-05 -2.48037e-05 -3.55509e-21 -2.34541e-07 1.8699e-20 1.31927e-05)
(-4.80907e-06 -2.40848e-05 3.09805e-19 -9.43752e-06 -1.59149e-20 1.42466e-05)
(2.16949e-06 -2.25522e-05 8.26748e-22 -1.80224e-05 -2.38133e-23 1.58529e-05)
(5.47536e-06 -1.38325e-05 -2.36724e-20 -1.76537e-05 1.32759e-21 1.21783e-05)
(5.62365e-05 -7.33794e-05 -1.14855e-21 -0.000143675 -1.76444e-22 8.74382e-05)
(0.000481014 -0.000275628 -2.55372e-18 -0.00111255 -9.52955e-20 0.000631535)
(0.00145033 0.000425601 1.76624e-17 -0.00322073 7.84286e-19 0.00177039)
(0.00231358 0.00468906 -2.39691e-19 -0.00521488 -1.32884e-20 0.00290131)
(0.00185825 0.0154475 -2.73263e-16 -0.00506972 -1.2775e-17 0.00321147)
(-0.000686831 0.0342916 -3.14301e-19 -0.00190447 9.4455e-18 0.00259131)
(-0.00552562 0.0608593 -1.19283e-18 0.00397989 8.15419e-18 0.00154573)
(-0.0113267 0.0929773 3.5399e-17 0.0108234 -1.03019e-16 0.000503347)
(-0.0190697 0.127607 -1.72787e-16 0.0190204 7.10667e-16 4.92966e-05)
(-0.00964143 0.154105 2.18663e-15 0.0104725 8.14315e-16 -0.000831073)
(-0.0374646 0.261209 4.48634e-15 0.0294825 1.75803e-15 0.00798206)
(0.00030628 -0.000258223 -6.67655e-21 -0.000296876 -1.24777e-20 -9.40393e-06)
(0.000259298 -0.000306082 -1.45496e-20 -0.000248912 -2.33136e-20 -1.03863e-05)
(0.000195911 -0.000347409 2.78036e-20 -0.000182639 4.22997e-20 -1.32724e-05)
(0.000125025 -0.000374211 3.91389e-20 -0.000109147 3.80664e-20 -1.5878e-05)
(5.17749e-05 -0.000382634 4.42355e-21 -3.28946e-05 -1.92064e-21 -1.88803e-05)
(-2.1293e-05 -0.000372943 -1.50097e-20 4.36689e-05 3.69038e-20 -2.23758e-05)
(-8.66744e-05 -0.000347085 2.84985e-19 0.000112589 2.85541e-19 -2.59149e-05)
(-0.000139539 -0.000308085 -2.66769e-19 0.000168993 -3.54232e-19 -2.94547e-05)
(-0.000178415 -0.000260562 7.45449e-20 0.00021168 1.92719e-20 -3.32644e-05)
(-0.000202004 -0.000209912 3.51839e-19 0.000238693 2.6064e-19 -3.66891e-05)
(-0.000211574 -0.000160037 2.76261e-19 0.000251484 2.80577e-19 -3.99103e-05)
(-0.000209291 -0.000114101 2.98953e-19 0.00025182 8.59034e-20 -4.25286e-05)
(-0.000197728 -7.42122e-05 -3.32354e-19 0.000241972 -2.5202e-19 -4.42448e-05)
(-0.000179867 -4.12319e-05 -2.07613e-19 0.000224686 -2.08272e-19 -4.48192e-05)
(-0.00015773 -1.50501e-05 2.27362e-20 0.000202199 -6.94541e-20 -4.44693e-05)
(-0.000133126 7.47387e-06 -5.03188e-19 0.000175297 3.54238e-20 -4.21709e-05)
(-0.000107615 2.66306e-05 -1.37695e-19 0.000145764 -1.745e-19 -3.81485e-05)
(-8.45546e-05 4.29105e-05 -7.71784e-19 0.00011752 -6.00227e-19 -3.29653e-05)
(-6.16743e-05 5.43863e-05 7.41795e-20 8.65731e-05 -9.98255e-20 -2.48989e-05)
(-4.27237e-05 5.81777e-05 2.68054e-20 5.86102e-05 -6.11476e-20 -1.58864e-05)
(-3.808e-05 7.08974e-05 -2.56392e-19 4.90515e-05 -3.03782e-21 -1.09715e-05)
(-7.15911e-05 0.000166511 7.50485e-20 8.61418e-05 1.65978e-20 -1.45507e-05)
(-0.000155263 0.000466127 -8.86318e-19 0.000180418 -1.80378e-19 -2.51552e-05)
(-0.000525872 0.00239359 -1.43436e-18 0.000627397 1.5398e-18 -0.000101525)
(-0.00066339 0.0071516 1.18907e-18 0.000966961 8.05748e-20 -0.000303571)
(0.000527129 0.0132812 1.07603e-17 8.34674e-05 5.7393e-18 -0.000610596)
(0.000533138 0.00276761 -2.99601e-19 -0.000381917 1.23794e-19 -0.00015122)
(0.00172045 0.00237487 1.04639e-18 -0.00144008 6.63652e-20 -0.000280376)
(0.00476609 -0.0115531 4.0694e-17 -0.00420073 2.47782e-18 -0.000565358)
(0.00995277 -0.108039 -9.88571e-18 -0.00871306 1.20812e-16 -0.00123971)
(-0.000304623 -0.476988 -5.31378e-16 0.00250094 -5.24344e-16 -0.00219632)
(-0.0766926 -1.29777 1.98769e-15 0.079403 -1.86439e-15 -0.00271042)
(-0.263428 -2.42319 2.1771e-15 0.264305 -2.12282e-16 -0.000876811)
(-0.514065 -3.34358 -3.85056e-16 0.510651 -7.24082e-15 0.00341483)
(-0.715453 -3.72226 -5.82341e-15 0.709493 -1.76344e-15 0.00596081)
(-0.792825 -3.65029 6.99753e-16 0.790288 3.66394e-15 0.00253716)
(-0.801226 -3.42058 -9.96556e-15 0.796542 1.47825e-15 0.00468451)
(-0.573886 -3.0194 -6.98819e-15 0.584232 8.73374e-16 -0.0103464)
(-0.814668 -3.21251 8.11054e-15 0.786331 -4.948e-15 0.0283369)
(0.000342224 -0.000198497 -3.61094e-21 -0.000335899 -3.70239e-21 -6.325e-06)
(0.000364714 -0.000135329 1.28814e-20 -0.000359228 5.89863e-20 -5.48568e-06)
(0.000373312 -5.72453e-05 3.82387e-20 -0.000370622 8.49213e-20 -2.69013e-06)
(0.00036393 2.51557e-05 4.12137e-20 -0.00036261 -2.0134e-20 -1.32003e-06)
(0.000332411 0.000105543 -8.18514e-20 -0.000332513 -7.0283e-20 1.02046e-07)
(0.000278549 0.000174405 -9.03204e-21 -0.000278829 -1.00532e-19 2.79878e-07)
(0.000208874 0.000222873 -1.25576e-19 -0.000208618 -1.28906e-19 -2.56146e-07)
(0.000134091 0.000246333 -1.98241e-19 -0.000134121 -7.31363e-21 2.9926e-08)
(6.20831e-05 0.000246781 -5.70121e-20 -6.28878e-05 -3.14896e-20 8.04681e-07)
(-4.81399e-07 0.000226456 6.17282e-20 -6.61688e-07 -4.32123e-20 1.14309e-06)
(-4.60143e-05 0.000192083 6.11205e-20 4.50225e-05 1.40237e-19 9.91792e-07)
(-7.36465e-05 0.000153527 1.1507e-19 7.31321e-05 -4.46358e-20 5.14413e-07)
(-8.69238e-05 0.000117332 -9.83266e-20 8.71756e-05 -1.12756e-19 -2.51854e-07)
(-9.02497e-05 8.63931e-05 -1.8573e-20 9.13693e-05 4.19336e-20 -1.11959e-06)
(-8.73193e-05 6.17588e-05 8.96059e-20 8.93386e-05 -1.95333e-20 -2.01938e-06)
(-8.10776e-05 4.30064e-05 1.96677e-19 8.39014e-05 -1.40388e-20 -2.82386e-06)
(-7.35834e-05 2.93006e-05 -1.23431e-19 7.71376e-05 -3.53422e-20 -3.55421e-06)
(-6.6111e-05 1.94555e-05 -3.74812e-20 7.02675e-05 -5.46975e-20 -4.15645e-06)
(-5.93561e-05 1.23042e-05 -1.74876e-20 6.40056e-05 9.69324e-21 -4.64948e-06)
(-5.34503e-05 6.79486e-06 1.82722e-19 5.8436e-05 -7.21939e-20 -4.98569e-06)
(-4.83435e-05 2.24991e-06 3.29953e-20 5.35919e-05 -4.83302e-20 -5.2484e-06)
(-4.37598e-05 -1.90785e-06 -1.77871e-19 4.92024e-05 5.22123e-20 -5.44263e-06)
(-3.92321e-05 -6.02087e-06 -7.44203e-21 4.48497e-05 2.62693e-20 -5.6176e-06)
(-3.40472e-05 -9.84475e-06 -2.86271e-21 3.97791e-05 -1.75648e-20 -5.73184e-06)
(-2.84136e-05 -1.2248e-05 2.66894e-21 3.44236e-05 -2.18598e-22 -6.00996e-06)
(-2.34555e-05 -1.29978e-05 -1.36234e-19 3.00706e-05 -2.79732e-20 -6.61512e-06)
(-1.95444e-05 -1.28635e-05 -2.40879e-21 2.68443e-05 4.28346e-22 -7.2999e-06)
(-1.65194e-05 -1.23522e-05 2.92463e-20 2.44677e-05 7.75674e-22 -7.94824e-06)
(-1.3684e-05 -1.14347e-05 -1.04488e-21 2.18799e-05 -2.50759e-23 -8.19591e-06)
(-1.08693e-05 -1.02008e-05 6.77215e-22 1.87103e-05 9.60065e-22 -7.84098e-06)
(-7.46477e-06 -8.18759e-06 -8.13047e-20 1.38347e-05 -2.92555e-21 -6.36997e-06)
(-4.21433e-06 -5.76224e-06 -2.18967e-21 8.62455e-06 -1.36054e-22 -4.41022e-06)
(-3.03833e-05 -5.74274e-05 3.84576e-21 7.75025e-05 -7.03128e-20 -4.71192e-05)
(-5.85814e-07 -4.59719e-05 1.72142e-17 0.00011041 1.55225e-18 -0.000109824)
(0.000235691 0.00060006 1.09613e-18 -0.000134647 1.22565e-19 -0.000101044)
(0.000881135 0.00333259 -1.87514e-16 -0.000938231 -3.54791e-17 5.70961e-05)
(0.00156931 0.0112034 1.24989e-15 -0.00204518 1.83493e-16 0.000475863)
(0.00671779 0.027907 4.81306e-17 -0.00720678 -1.76527e-16 0.000488992)
(-0.00282899 0.104479 2.7307e-16 -0.00194875 -1.51804e-15 0.00477774)
(0.000222634 -0.000196128 -7.9989e-21 -0.000225649 -1.18888e-20 3.01561e-06)
(0.000184148 -0.000231624 -1.46002e-20 -0.000188508 -1.97225e-20 4.35983e-06)
(0.000134444 -0.000261248 4.96378e-20 -0.000139278 6.35965e-20 4.83417e-06)
(7.79987e-05 -0.000279187 -2.11739e-19 -8.41633e-05 -2.89665e-19 6.16453e-06)
(1.89321e-05 -0.000283319 5.25435e-20 -2.64809e-05 8.24253e-20 7.54882e-06)
(-4.04421e-05 -0.00027307 1.1458e-19 3.16122e-05 1.19122e-19 8.82989e-06)
(-9.48349e-05 -0.000249163 -9.7767e-20 8.42687e-05 -1.60264e-19 1.05661e-05)
(-0.000140347 -0.000213788 -6.58801e-20 0.000127929 1.13893e-20 1.2418e-05)
(-0.00017474 -0.000169936 -3.9361e-19 0.000160477 -3.72304e-19 1.42627e-05)
(-0.000196679 -0.000121817 -5.50679e-20 0.000180319 -1.4866e-19 1.63605e-05)
(-0.000206279 -7.2869e-05 1.08139e-20 0.000187824 -3.48934e-20 1.84546e-05)
(-0.000204704 -2.62634e-05 -1.97002e-19 0.000184162 -2.50236e-19 2.05422e-05)
(-0.000193971 1.54449e-05 9.43961e-20 0.000171446 1.13237e-19 2.25255e-05)
(-0.000176465 5.07377e-05 -3.87139e-19 0.000152269 -2.0124e-19 2.41962e-05)
(-0.000154505 7.94337e-05 8.43458e-20 0.000128936 4.69821e-20 2.55696e-05)
(-0.000130517 0.00010045 3.6849e-19 0.00010458 3.08297e-19 2.59371e-05)
(-0.000106151 0.000113158 -5.04834e-19 8.13322e-05 -1.43584e-19 2.48193e-05)
(-8.18931e-05 0.000118214 -9.24609e-20 5.91834e-05 4.15614e-19 2.27098e-05)
(-5.97887e-05 0.000118327 -3.13242e-20 3.96676e-05 -5.31036e-20 2.01211e-05)
(-3.96719e-05 0.000112142 -3.74453e-19 2.29167e-05 -6.06304e-20 1.67551e-05)
(-2.00891e-05 8.57901e-05 3.15446e-19 9.35493e-06 1.93533e-19 1.07341e-05)
(-9.85844e-06 6.41901e-05 7.66316e-21 3.75413e-06 -1.1073e-20 6.10432e-06)
(-6.7644e-06 6.98145e-05 1.78331e-19 2.13478e-06 4.96834e-20 4.62962e-06)
(-2.52522e-06 7.98493e-05 1.31631e-19 -1.21287e-06 4.39111e-20 3.7381e-06)
(3.77023e-06 8.70021e-05 -1.27542e-20 -6.74707e-06 -1.20132e-21 2.97684e-06)
(9.46967e-06 8.92105e-05 1.37816e-21 -1.15664e-05 -4.99529e-21 2.09675e-06)
(0.000125836 0.000878326 1.3917e-19 -0.00013787 -3.85147e-20 1.20336e-05)
(0.000445135 0.00271995 -2.02912e-19 -0.000462835 -3.06476e-19 1.77003e-05)
(0.00149744 0.00801575 -8.57116e-18 -0.0015105 -4.28349e-19 1.30564e-05)
(0.000866208 0.00380759 4.45015e-19 -0.000858415 2.53047e-20 -7.79237e-06)
(0.00263608 0.00831091 -2.5452e-18 -0.00259181 9.78628e-19 -4.42686e-05)
(0.0105026 0.0119566 -2.21591e-16 -0.0102762 -1.56922e-16 -0.00022645)
(0.0187148 -0.0982534 -8.15922e-17 -0.0178843 -2.52415e-16 -0.000830499)
(-0.0256125 -0.583852 -5.45148e-15 0.0276069 5.37074e-16 -0.00199434)
(-0.182128 -1.48953 7.64549e-16 0.183945 2.51006e-15 -0.00181678)
(-0.400642 -2.39881 -8.62336e-19 0.401353 1.32849e-19 -0.000710169)
(-0.585925 -2.96363 -3.40228e-16 0.581961 4.5443e-15 0.00396355)
(-0.525439 -3.08568 1.42262e-16 0.536072 1.90177e-16 -0.0106328)
(-0.773256 -3.40207 -1.32572e-14 0.73577 2.74728e-15 0.0374866)
(0.000253108 -0.000152903 1.41154e-20 -0.000256266 9.06106e-21 3.15744e-06)
(0.000274184 -0.000106572 -3.97534e-20 -0.000275956 -6.40745e-20 1.7728e-06)
(0.000285724 -4.96653e-05 -2.19733e-20 -0.000287343 3.72929e-20 1.61917e-06)
(0.000283464 1.17711e-05 1.06087e-19 -0.000284288 7.79002e-20 8.23689e-07)
(0.000264476 7.30934e-05 -3.95897e-20 -0.000265052 -2.04179e-19 5.76421e-07)
(0.000228057 0.000127523 -7.08502e-20 -0.000228065 4.80783e-20 8.4884e-09)
(0.00017833 0.000168591 1.78819e-19 -0.000178004 1.39204e-19 -3.25333e-07)
(0.000122699 0.000192328 -5.94565e-20 -0.00012258 -1.6247e-19 -1.19073e-07)
(6.67713e-05 0.00019883 -1.4318e-19 -6.69511e-05 -6.47221e-20 1.79778e-07)
(1.59935e-05 0.000188953 -1.06525e-19 -1.63331e-05 4.16258e-20 3.3958e-07)
(-2.36405e-05 0.000167061 1.17746e-19 2.3337e-05 4.47279e-21 3.03436e-07)
(-5.04748e-05 0.000139406 -6.73461e-20 5.01956e-05 -6.87844e-20 2.79223e-07)
(-6.58569e-05 0.000110987 -8.61599e-20 6.55264e-05 6.8761e-20 3.30485e-07)
(-7.23438e-05 8.47907e-05 8.34215e-20 7.18771e-05 3.5889e-20 4.6676e-07)
(-7.25481e-05 6.24352e-05 -1.22302e-19 7.18744e-05 2.04056e-20 6.73718e-07)
(-6.88982e-05 4.43326e-05 -3.28184e-20 6.79432e-05 -9.02465e-20 9.54972e-07)
(-6.32425e-05 3.02671e-05 3.64583e-20 6.19784e-05 4.66757e-20 1.26412e-06)
(-5.69267e-05 1.95706e-05 -1.33599e-19 5.53454e-05 6.26443e-21 1.58136e-06)
(-5.07691e-05 1.14598e-05 5.30564e-20 4.88922e-05 -9.52427e-22 1.87694e-06)
(-4.5112e-05 5.13606e-06 -2.02176e-19 4.29597e-05 1.382e-20 2.15232e-06)
(-4.00221e-05 -2.29746e-08 -2.78505e-20 3.7644e-05 7.5953e-21 2.37814e-06)
(-3.53181e-05 -4.52334e-06 1.61989e-19 3.27491e-05 1.49753e-20 2.569e-06)
(-3.06274e-05 -8.65392e-06 1.5524e-19 2.79075e-05 -3.553e-20 2.71988e-06)
(-2.53523e-05 -1.22589e-05 -1.29376e-19 2.2432e-05 9.59055e-21 2.92031e-06)
(-1.95036e-05 -1.45491e-05 -1.80447e-21 1.63509e-05 1.07798e-21 3.15275e-06)
(-1.39163e-05 -1.52711e-05 -1.23843e-19 1.05755e-05 3.77705e-20 3.34087e-06)
(-9.03129e-06 -1.50183e-05 -2.44106e-21 5.38499e-06 2.64737e-23 3.6463e-06)
(-4.8158e-06 -1.41933e-05 -1.97318e-23 7.45451e-07 -1.03264e-21 4.07035e-06)
(-1.23694e-06 -1.3132e-05 -1.41942e-22 -3.32321e-06 2.87019e-23 4.56015e-06)
(1.63627e-06 -1.12933e-05 4.45377e-20 -6.35329e-06 3.68742e-22 4.71702e-06)
(4.36918e-06 -1.18024e-05 1.64918e-22 -1.00254e-05 -3.69365e-22 5.65626e-06)
(3.23012e-06 -5.83769e-06 4.28033e-23 -6.13143e-06 -1.5186e-24 2.90131e-06)
(1.1876e-05 -1.72401e-05 -6.13614e-19 -1.98638e-05 -4.60031e-20 7.9878e-06)
(8.68756e-05 -0.000109099 -4.04235e-18 -0.000129185 -3.45234e-19 4.23098e-05)
(2.45386e-05 -2.67497e-05 9.75842e-21 -3.24791e-05 9.82252e-22 7.94057e-06)
(0.000109649 -8.9214e-05 -8.2546e-18 -0.000127329 -1.31694e-19 1.76799e-05)
(0.000366177 -0.000131049 2.82445e-18 -0.000395698 -2.10534e-17 2.95212e-05)
(0.000935417 0.000212262 1.46116e-18 -0.000913717 2.88474e-19 -2.16999e-05)
(0.00383711 0.0197095 -5.08402e-16 -0.00521003 7.06233e-17 0.00137293)
(0.00018413 -0.000161014 1.57561e-20 -0.000183018 1.84807e-20 -1.11164e-06)
(0.000155879 -0.000189721 -1.18905e-20 -0.000154872 -1.33736e-20 -1.00703e-06)
(0.000118628 -0.000214942 4.94865e-23 -0.000117023 -9.88834e-22 -1.60468e-06)
(7.60892e-05 -0.00023239 -6.7862e-21 -7.41975e-05 6.36071e-21 -1.89168e-06)
(3.1036e-05 -0.000239974 1.51916e-19 -2.87669e-05 1.60409e-19 -2.26912e-06)
(-1.54506e-05 -0.000237317 -9.61121e-20 1.84273e-05 -1.2348e-19 -2.97673e-06)
(-5.93402e-05 -0.00022451 -7.26167e-21 6.29577e-05 3.18246e-20 -3.61756e-06)
(-9.76928e-05 -0.000202637 3.28448e-19 0.000102082 3.16247e-19 -4.38913e-06)
(-0.00012879 -0.000173559 -7.75232e-20 0.000134176 5.60927e-21 -5.38568e-06)