/*--------------------------------*- C++ -*----------------------------------*\
| =========                 |                                                 |
| \\      /  F ield         | OpenFOAM: The Open Source CFD Toolbox           |
|  \\    /   O peration     | Version:  2312                                  |
|   \\  /    A nd           | Website:  www.openfoam.com                      |
|    \\/     M anipulation  |                                                 |
\*---------------------------------------------------------------------------*/
FoamFile
{
    version     2.0;
    format      ascii;
    arch        "LSB;label=32;scalar=64";
    class       volScalarField;
    location    "500";
    object      turbulenceProperties:nut;
}
// * * * * * * * * * * * * * * * * * * * * * * * * * * * * * * * * * * * * * //

dimensions      [0 2 -1 0 0 0 0];

internalField   nonuniform List<scalar> 
10720
(
2.5808e-05
2.95347e-05
3.45224e-05
4.09851e-05
4.93088e-05
6.00253e-05
7.38546e-05
9.11588e-05
0.000112975
0.000140349
0.000175234
0.000220745
0.000281313
0.000364892
0.000485068
0.000663862
0.000945883
0.00139526
0.00221739
0.00358943
0.00690163
0.0127115
0.0339108
0.0760452
0.0937413
0.0946744
0.0957133
0.0992386
0.10275
0.104485
0.10446
0.103212
0.100844
0.0974129
0.0927936
0.0869123
0.0784496
0.0683192
0.0332562
2.25824e-05
1.98038e-05
1.70736e-05
1.45837e-05
1.22497e-05
1.01071e-05
8.24451e-06
6.96116e-06
8.09648e-06
1.07909e-05
1.54813e-05
2.3227e-05
3.5576e-05
5.44541e-05
8.13875e-05
0.000117945
0.000167178
0.000236277
0.000339384
0.000501811
0.000773254
0.00124196
0.00211757
0.0037699
0.00732809
0.0147229
0.0324777
0.0663217
0.0934696
0.105025
0.108433
0.109375
0.109471
0.108975
0.107974
0.106577
0.104431
0.101996
0.0924605
5.08548e-06
4.98033e-06
4.88546e-06
4.80683e-06
4.71662e-06
4.6338e-06
4.57245e-06
4.51875e-06
4.49564e-06
4.51593e-06
4.54347e-06
4.81844e-06
5.87875e-06
8.65247e-06
1.64114e-05
3.68039e-05
8.3898e-05
0.000162801
0.000315446
0.000588909
0.00131765
0.0028203
0.00706411
0.0204241
0.0394834
0.0633235
0.0925895
0.123715
0.148726
0.162668
0.167956
0.168779
0.167195
0.163847
0.159337
0.153836
0.148527
0.139508
0.139918
5.16908e-06
5.28233e-06
5.37884e-06
5.50984e-06
5.64412e-06
5.78001e-06
5.91116e-06
6.02175e-06
5.95913e-06
5.8177e-06
5.6246e-06
5.3903e-06
5.12406e-06
4.82943e-06
4.4957e-06
4.11974e-06
3.67667e-06
3.16244e-06
2.54828e-06
1.84351e-06
1.07405e-06
4.20529e-07
5.41006e-08
1.46915e-09
9.30771e-09
9.37211e-05
0.000539958
0.00415678
0.0141156
0.0287197
0.0437273
0.0550627
0.0618255
0.0656074
0.0680052
0.0699955
0.071727
0.075299
0.0784601
6.26616e-06
6.28349e-06
6.30147e-06
6.3208e-06
6.34449e-06
6.371e-06
6.40132e-06
6.43677e-06
6.47862e-06
6.52762e-06
6.58585e-06
6.65741e-06
6.73661e-06
6.88142e-06
6.88347e-06
6.49823e-06
4.89148e-06
3.9209e-06
2.44889e-07
9.72894e-05
0.000263803
0.000196587
0.000333164
0.000991144
0.00325419
0.00758554
0.0155766
0.0309209
0.0573053
0.0937353
0.132764
0.164475
0.184893
0.196739
0.203437
0.206321
0.207571
0.201483
0.210277
6.25289e-06
6.23387e-06
6.21932e-06
6.19774e-06
6.1792e-06
6.15928e-06
6.14154e-06
6.12751e-06
6.13229e-06
6.14725e-06
6.16688e-06
6.19086e-06
6.2202e-06
6.25305e-06
6.29008e-06
6.331e-06
6.37749e-06
6.43078e-06
6.49448e-06
6.57193e-06
6.67138e-06
6.79893e-06
6.98021e-06
7.17351e-06
7.43588e-06
7.15665e-06
7.24722e-06
2.48425e-06
8.36893e-05
0.000790357
0.00301747
0.00754202
0.0142529
0.0224362
0.0311574
0.039601
0.0470008
0.0536735
0.0631671
6.08613e-06
6.08373e-06
6.08313e-06
6.0835e-06
6.08442e-06
6.08709e-06
6.09198e-06
6.09872e-06
6.10877e-06
6.12237e-06
6.14033e-06
6.16383e-06
6.19444e-06
6.23343e-06
6.28346e-06
6.34535e-06
6.22292e-06
5.88342e-06
4.16896e-06
1.14108e-06
1.11214e-08
7.87895e-06
3.14925e-05
0.00019525
0.000679182
0.00163273
0.000519277
0.00138858
0.00416589
0.0134316
0.0355335
0.0726998
0.118781
0.161302
0.193202
0.215344
0.23194
0.239145
0.255242
6.0868e-06
6.08915e-06
6.09227e-06
6.09446e-06
6.09826e-06
6.1003e-06
6.10162e-06
6.10255e-06
6.1004e-06
6.09771e-06
6.09422e-06
6.09049e-06
6.08702e-06
6.0836e-06
6.08027e-06
6.07679e-06
6.07312e-06
6.06912e-06
6.06406e-06
6.05898e-06
6.05362e-06
6.04789e-06
6.04108e-06
6.03481e-06
6.02803e-06
6.03037e-06
6.0231e-06
6.08257e-06
5.99878e-06
5.95275e-06
5.20821e-06
4.17138e-06
0.000226717
0.00104637
0.00304156
0.00688887
0.013093
0.021834
0.0392172
6.11119e-06
6.11175e-06
6.11202e-06
6.11291e-06
6.11446e-06
6.11643e-06
6.1191e-06
6.12268e-06
6.12738e-06
6.13356e-06
6.14164e-06
6.15222e-06
6.16609e-06
6.18391e-06
6.20824e-06
6.2358e-06
6.28466e-06
6.30881e-06
6.54803e-06
6.53114e-06
3.43009e-06
1.10569e-07
7.09957e-09
2.72331e-10
0
0
8.85554e-05
0.000297893
0.000934293
0.000502484
0.00159075
0.00794648
0.0295327
0.0706708
0.124091
0.175034
0.217166
0.248038
0.278265
6.11124e-06
6.10986e-06
6.11056e-06
6.10951e-06
6.11039e-06
6.10918e-06
6.10707e-06
6.10518e-06
6.10411e-06
6.10387e-06
6.10385e-06
6.10376e-06
6.10411e-06
6.10464e-06
6.10561e-06
6.10684e-06
6.10839e-06
6.11023e-06
6.11242e-06
6.1149e-06
6.11766e-06
6.1207e-06
6.12414e-06
6.12794e-06
6.13287e-06
6.13716e-06
6.15041e-06
6.13005e-06
6.27274e-06
5.69495e-06
8.70899e-06
5.81137e-07
2.56313e-05
0.000247849
6.43995e-05
0.000309818
0.0010417
0.00174141
0.0136981
6.10507e-06
6.10485e-06
6.10514e-06
6.1054e-06
6.1055e-06
6.1059e-06
6.1065e-06
6.10727e-06
6.10849e-06
6.11018e-06
6.1125e-06
6.11572e-06
6.12008e-06
6.12598e-06
6.13415e-06
6.1448e-06
6.16093e-06
6.1734e-06
6.22118e-06
6.33685e-06
6.43479e-06
5.817e-06
3.02024e-06
1.90565e-07
9.48817e-09
2.24676e-09
1.27137e-10
0
0
8.88586e-05
0.000354183
0.00181335
0.000363636
0.0087203
0.0380497
0.0932643
0.160389
0.223983
0.278314
6.1046e-06
6.10391e-06
6.10482e-06
6.1046e-06
6.1063e-06
6.10603e-06
6.10467e-06
6.10346e-06
6.10248e-06
6.10188e-06
6.10144e-06
6.10096e-06
6.10071e-06
6.10055e-06
6.10054e-06
6.10057e-06
6.10069e-06
6.10089e-06
6.10114e-06
6.10139e-06
6.10162e-06
6.10175e-06
6.10182e-06
6.10147e-06
6.1014e-06
6.10172e-06
6.10212e-06
6.10392e-06
6.1035e-06
6.11245e-06
6.0929e-06
6.17577e-06
5.49928e-06
4.20607e-06
2.11818e-06
4.4247e-05
0.000241282
0.000453585
0.00238378
6.10531e-06
6.10553e-06
6.10569e-06
6.10573e-06
6.10586e-06
6.10595e-06
6.10612e-06
6.10646e-06
6.10694e-06
6.10765e-06
6.10869e-06
6.11015e-06
6.11221e-06
6.11509e-06
6.11904e-06
6.12462e-06
6.13211e-06
6.14071e-06
6.14927e-06
6.16538e-06
6.26049e-06
6.35662e-06
6.50973e-06
5.82837e-06
3.6581e-06
1.36694e-06
7.5959e-08
8.95344e-09
3.44894e-09
4.84295e-11
0
0
5.17514e-05
0.00204926
0.00166834
0.0217106
0.0781934
0.166171
0.252292
6.10484e-06
6.10378e-06
6.10417e-06
6.10385e-06
6.10551e-06
6.10544e-06
6.10424e-06
6.10309e-06
6.10219e-06
6.10169e-06
6.10132e-06
6.10113e-06
6.101e-06
6.10106e-06
6.10101e-06
6.10105e-06
6.10122e-06
6.10145e-06
6.10179e-06
6.1022e-06
6.10271e-06
6.10328e-06
6.10396e-06
6.10476e-06
6.10574e-06
6.10703e-06
6.1087e-06
6.11079e-06
6.11342e-06
6.11671e-06
6.121e-06
6.13099e-06
6.20059e-06
5.77127e-06
3.30243e-06
3.12357e-07
9.74773e-09
1.77902e-11
6.17865e-05
6.10488e-06
6.10502e-06
6.10531e-06
6.10529e-06
6.10511e-06
6.10498e-06
6.10482e-06
6.10466e-06
6.10461e-06
6.10462e-06
6.10471e-06
6.10494e-06
6.10531e-06
6.1059e-06
6.10679e-06
6.10816e-06
6.11016e-06
6.11282e-06
6.11504e-06
6.117e-06
6.12375e-06
6.13633e-06
6.20965e-06
6.50798e-06
6.75294e-06
6.49356e-06
5.46166e-06
3.46423e-06
1.78525e-06
2.52571e-08
7.87694e-09
1.73685e-11
0
0
0.000383599
0.00541428
0.0161382
0.0904166
0.200015
6.10429e-06
6.10315e-06
6.10315e-06
6.10273e-06
6.10435e-06
6.10449e-06
6.10359e-06
6.10255e-06
6.10175e-06
6.10128e-06
6.10097e-06
6.10081e-06
6.10074e-06
6.10083e-06
6.10091e-06
6.10103e-06
6.10109e-06
6.1011e-06
6.10119e-06
6.10128e-06
6.10141e-06
6.10155e-06
6.10172e-06
6.10187e-06
6.102e-06
6.10217e-06
6.1024e-06
6.10265e-06
6.10292e-06
6.10303e-06
6.10354e-06
6.10111e-06
6.11224e-06
6.06702e-06
6.19397e-06
5.03296e-06
2.8803e-06
1.81357e-08
6.04658e-07
6.10482e-06
6.10495e-06
6.10509e-06
6.1049e-06
6.10472e-06
6.10444e-06
6.10421e-06
6.10409e-06
6.10396e-06
6.10391e-06
6.10393e-06
6.10403e-06
6.10426e-06
6.10466e-06
6.10528e-06
6.10623e-06
6.10765e-06
6.10956e-06
6.11146e-06
6.11323e-06
6.11399e-06
6.11719e-06
6.10352e-06
6.12655e-06
6.28747e-06
6.54926e-06
6.8696e-06
7.12165e-06
7.04823e-06
5.12369e-06
3.01099e-06
8.45223e-09
3.12108e-09
0
0
0
0.00441197
0.0305454
0.132823
6.10424e-06
6.10298e-06
6.10263e-06
6.10205e-06
6.10358e-06
6.10384e-06
6.10314e-06
6.10218e-06
6.10149e-06
6.10105e-06
6.1008e-06
6.10067e-06
6.10061e-06
6.10069e-06
6.10078e-06
6.10093e-06
6.10106e-06
6.1012e-06
6.10129e-06
6.10129e-06
6.10137e-06
6.10148e-06
6.10164e-06
6.10183e-06
6.10205e-06
6.10239e-06
6.10289e-06
6.10356e-06
6.10441e-06
6.10548e-06
6.10684e-06
6.10837e-06
6.11128e-06
6.11127e-06
6.14032e-06
6.21646e-06
6.64321e-06
4.60549e-06
2.64984e-09
6.10473e-06
6.10474e-06
6.10475e-06
6.10447e-06
6.10417e-06
6.10388e-06
6.10358e-06
6.10335e-06
6.10314e-06
6.10296e-06
6.1028e-06
6.10269e-06
6.10261e-06
6.10255e-06
6.10253e-06
6.10252e-06
6.1026e-06
6.10268e-06
6.10291e-06
6.10354e-06
6.10438e-06
6.10744e-06
6.10818e-06
6.09385e-06
6.0883e-06
6.12399e-06
6.24585e-06
6.49567e-06
6.86029e-06
7.26572e-06
7.56923e-06
5.19267e-06
1.20373e-06
1.08488e-08
0
0
2.35412e-08
0.00044092
0.0723814
6.10423e-06
6.10295e-06
6.10231e-06
6.10153e-06
6.10293e-06
6.10328e-06
6.10272e-06
6.10185e-06
6.10125e-06
6.10086e-06
6.10071e-06
6.10054e-06
6.10046e-06
6.10051e-06
6.10058e-06
6.10074e-06
6.10091e-06
6.10109e-06
6.10124e-06
6.10139e-06
6.1015e-06
6.10158e-06
6.10157e-06
6.10159e-06
6.10163e-06
6.10173e-06
6.10192e-06
6.10219e-06
6.10252e-06
6.10295e-06
6.10337e-06
6.1041e-06
6.10378e-06
6.10913e-06
6.08872e-06
6.17664e-06
5.80883e-06
8.77357e-06
5.75412e-07
6.10461e-06
6.10447e-06
6.10434e-06
6.104e-06
6.10365e-06
6.10332e-06
6.10302e-06
6.10282e-06
6.10264e-06
6.1025e-06
6.1024e-06
6.10234e-06
6.10232e-06
6.10236e-06
6.10246e-06
6.10267e-06
6.10299e-06
6.10349e-06
6.10408e-06
6.10464e-06
6.10506e-06
6.10568e-06
6.10815e-06
6.10785e-06
6.0984e-06
6.08378e-06
6.07669e-06
6.10767e-06
6.19801e-06
6.4471e-06
6.86773e-06
7.63953e-06
7.18663e-06
3.02477e-06
1.58266e-08
0
0
0.000798205
0.0332844
6.10424e-06
6.103e-06
6.10214e-06
6.10119e-06
6.10245e-06
6.10283e-06
6.10236e-06
6.10157e-06
6.10105e-06
6.10072e-06
6.10056e-06
6.1004e-06
6.1003e-06
6.10031e-06
6.10037e-06
6.10051e-06
6.10067e-06
6.10087e-06
6.10105e-06
6.10123e-06
6.10138e-06
6.10153e-06
6.10164e-06
6.10173e-06
6.10178e-06
6.10185e-06
6.10199e-06
6.10223e-06
6.10255e-06
6.10299e-06
6.1035e-06
6.10436e-06
6.10434e-06
6.10887e-06
6.09353e-06
6.16425e-06
5.85609e-06
7.15291e-06
4.37263e-06
6.10443e-06
6.10414e-06
6.10391e-06
6.10353e-06
6.10315e-06
6.10282e-06
6.10253e-06
6.10233e-06
6.10214e-06
6.10201e-06
6.1019e-06
6.10182e-06
6.10175e-06
6.10173e-06
6.10172e-06
6.10176e-06
6.10184e-06
6.10197e-06
6.10219e-06
6.1026e-06
6.1032e-06
6.10383e-06
6.10503e-06
6.10728e-06
6.10807e-06
6.10444e-06
6.09394e-06
6.08123e-06
6.07066e-06
6.09564e-06
6.16759e-06
6.50606e-06
7.21424e-06
7.79161e-06
4.0136e-06
1.05162e-08
0
0.000282651
0.0131019
6.10423e-06
6.10306e-06
6.10205e-06
6.10095e-06
6.10207e-06
6.10244e-06
6.10204e-06
6.10131e-06
6.10085e-06
6.10055e-06
6.10041e-06
6.10027e-06
6.10014e-06
6.10012e-06
6.10013e-06
6.10024e-06
6.10039e-06
6.10057e-06
6.10077e-06
6.10098e-06
6.10119e-06
6.1014e-06
6.10158e-06
6.10174e-06
6.10189e-06
6.10197e-06
6.10201e-06
6.10209e-06
6.10225e-06
6.10248e-06
6.10278e-06
6.10322e-06
6.10347e-06
6.10505e-06
6.10158e-06
6.119e-06
6.05942e-06
6.20448e-06
6.16437e-06
6.10419e-06
6.10377e-06
6.10346e-06
6.10308e-06
6.1027e-06
6.10237e-06
6.1021e-06
6.10192e-06
6.10176e-06
6.10166e-06
6.1016e-06
6.10155e-06
6.10153e-06
6.10152e-06
6.10154e-06
6.10161e-06
6.10171e-06
6.10189e-06
6.10214e-06
6.10246e-06
6.10286e-06
6.10332e-06
6.1039e-06
6.10501e-06
6.10677e-06
6.10833e-06
6.10798e-06
6.10427e-06
6.09531e-06
6.0827e-06
6.06526e-06
6.07148e-06
6.24985e-06
6.80066e-06
8.53224e-06
2.50951e-06
6.48738e-12
7.30805e-05
0.00433672
6.10416e-06
6.10311e-06
6.10201e-06
6.1008e-06
6.10176e-06
6.10211e-06
6.10175e-06
6.10109e-06
6.10067e-06
6.10039e-06
6.10023e-06
6.10009e-06
6.09995e-06
6.0999e-06
6.0999e-06
6.09998e-06
6.1001e-06
6.10028e-06
6.10049e-06
6.10074e-06
6.10097e-06
6.10122e-06
6.10144e-06
6.10164e-06
6.10184e-06
6.10198e-06
6.10204e-06
6.10208e-06
6.10216e-06
6.10232e-06
6.10255e-06
6.10287e-06
6.1033e-06
6.10368e-06
6.10474e-06
6.10281e-06
6.1169e-06
6.05259e-06
6.25745e-06
6.10389e-06
6.10339e-06
6.10305e-06
6.10267e-06
6.1023e-06
6.10196e-06
6.10172e-06
6.10158e-06
6.10146e-06
6.10141e-06
6.10138e-06
6.10135e-06
6.10135e-06
6.10135e-06
6.10136e-06
6.1014e-06
6.10147e-06
6.10157e-06
6.10172e-06
6.10195e-06
6.10227e-06
6.1027e-06
6.1032e-06
6.10386e-06
6.1049e-06
6.1064e-06
6.10813e-06
6.10952e-06
6.10987e-06
6.10701e-06
6.09928e-06
6.07271e-06
6.05083e-06
6.08101e-06
6.66634e-06
9.96885e-06
2.40004e-11
1.35523e-06
0.00110878
6.10402e-06
6.10312e-06
6.10199e-06
6.10069e-06
6.1015e-06
6.10183e-06
6.1015e-06
6.10089e-06
6.10049e-06
6.10022e-06
6.10005e-06
6.09993e-06
6.09977e-06
6.09969e-06
6.09967e-06
6.09974e-06
6.09986e-06
6.10003e-06
6.10023e-06
6.10047e-06
6.10072e-06
6.10098e-06
6.10124e-06
6.10147e-06
6.1017e-06
6.10189e-06
6.10202e-06
6.10208e-06
6.1021e-06
6.10217e-06
6.10231e-06
6.1025e-06
6.10282e-06
6.10303e-06
6.1041e-06
6.10208e-06
6.11258e-06
6.08132e-06
6.14633e-06
6.10356e-06
6.10303e-06
6.10266e-06
6.10229e-06
6.10193e-06
6.10161e-06
6.10142e-06
6.10132e-06
6.10126e-06
6.10124e-06
6.10125e-06
6.10126e-06
6.10128e-06
6.10131e-06
6.10134e-06
6.10139e-06
6.10145e-06
6.10155e-06
6.10167e-06
6.10186e-06
6.1021e-06
6.10241e-06
6.10281e-06
6.10331e-06
6.104e-06
6.10498e-06
6.10632e-06
6.10793e-06
6.10992e-06
6.11195e-06
6.11359e-06
6.11196e-06
6.0805e-06
6.10599e-06
5.63686e-06
9.2955e-06
2.68714e-06
3.403e-10
6.93036e-05
6.10383e-06
6.10309e-06
6.10198e-06
6.10063e-06
6.10129e-06
6.10157e-06
6.10126e-06
6.1007e-06
6.10032e-06
6.10004e-06
6.09987e-06
6.09974e-06
6.09958e-06
6.0995e-06
6.09946e-06
6.09951e-06
6.09961e-06
6.09977e-06
6.09996e-06
6.10019e-06
6.10045e-06
6.10072e-06
6.101e-06
6.10126e-06
6.10152e-06
6.10174e-06
6.10192e-06
6.10204e-06
6.1021e-06
6.10212e-06
6.10219e-06
6.10232e-06
6.10253e-06
6.10275e-06
6.10326e-06
6.10311e-06
6.10556e-06
6.10207e-06
6.10727e-06
6.10324e-06
6.1027e-06
6.10231e-06
6.10194e-06
6.10161e-06
6.10134e-06
6.10119e-06
6.10114e-06
6.10113e-06
6.10117e-06
6.10121e-06
6.10126e-06
6.1013e-06
6.10135e-06
6.10139e-06
6.10144e-06
6.10149e-06
6.10156e-06
6.10166e-06
6.1018e-06
6.10199e-06
6.10224e-06
6.10256e-06
6.10297e-06
6.10352e-06
6.10426e-06
6.10525e-06
6.10648e-06
6.10795e-06
6.11002e-06
6.11205e-06
6.1195e-06
6.1034e-06
6.16625e-06
5.81577e-06
6.42759e-06
9.45732e-06
4.60502e-11
6.67555e-07
6.10361e-06
6.10301e-06
6.10194e-06
6.10058e-06
6.1011e-06
6.10133e-06
6.10104e-06
6.10053e-06
6.10015e-06
6.09986e-06
6.0997e-06
6.09957e-06
6.0994e-06
6.0993e-06
6.09926e-06
6.0993e-06
6.09939e-06
6.09953e-06
6.09972e-06
6.09995e-06
6.1002e-06
6.10048e-06
6.10076e-06
6.10104e-06
6.10133e-06
6.10158e-06
6.10179e-06
6.10196e-06
6.10208e-06
6.10213e-06
6.10215e-06
6.10221e-06
6.10234e-06
6.10251e-06
6.10278e-06
6.10315e-06
6.10337e-06
6.10573e-06
6.10268e-06
6.10292e-06
6.10239e-06
6.10197e-06
6.10162e-06
6.10134e-06
6.10112e-06
6.10104e-06
6.10104e-06
6.10108e-06
6.10115e-06
6.10123e-06
6.10129e-06
6.10135e-06
6.10141e-06
6.10146e-06
6.10151e-06
6.10157e-06
6.10164e-06
6.10172e-06
6.10184e-06
6.10199e-06
6.10219e-06
6.10245e-06
6.10278e-06
6.10323e-06
6.10384e-06
6.10465e-06
6.10567e-06
6.10682e-06
6.10835e-06
6.10962e-06
6.11449e-06
6.11315e-06
6.1253e-06
6.19017e-06
5.264e-06
1.2093e-05
3.0689e-10
1.86265e-16
6.10336e-06
6.10291e-06
6.10189e-06
6.10054e-06
6.10093e-06
6.10111e-06
6.10084e-06
6.10035e-06
6.09997e-06
6.09969e-06
6.09952e-06
6.09938e-06
6.09921e-06
6.09912e-06
6.09908e-06
6.09911e-06
6.09919e-06
6.09932e-06
6.09949e-06
6.0997e-06
6.09995e-06
6.10023e-06
6.10053e-06
6.10083e-06
6.10112e-06
6.10139e-06
6.10163e-06
6.10183e-06
6.10199e-06
6.10209e-06
6.10214e-06
6.10216e-06
6.10223e-06
6.10234e-06
6.10252e-06
6.10284e-06
6.10296e-06
6.10489e-06
6.10358e-06
6.10263e-06
6.10209e-06
6.10166e-06
6.10135e-06
6.10111e-06
6.10095e-06
6.10094e-06
6.10099e-06
6.10107e-06
6.10117e-06
6.10126e-06
6.10135e-06
6.10143e-06
6.1015e-06
6.10156e-06
6.10162e-06
6.10167e-06
6.10174e-06
6.10181e-06
6.10191e-06
6.10203e-06
6.1022e-06
6.10242e-06
6.10269e-06
6.10306e-06
6.10357e-06
6.10425e-06
6.10512e-06
6.10616e-06
6.10737e-06
6.10876e-06
6.10977e-06
6.11873e-06
6.08395e-06
6.31149e-06
5.30832e-06
9.45123e-06
1.60593e-06
5.23035e-10
6.10309e-06
6.10277e-06
6.10183e-06
6.1005e-06
6.10078e-06
6.10091e-06
6.10065e-06
6.10019e-06
6.09981e-06
6.09952e-06
6.09934e-06
6.0992e-06
6.09905e-06
6.09895e-06
6.09891e-06
6.09893e-06
6.099e-06
6.09912e-06
6.09928e-06
6.09949e-06
6.09972e-06
6.1e-06
6.1003e-06
6.1006e-06
6.10091e-06
6.10119e-06
6.10145e-06
6.10168e-06
6.10187e-06
6.10201e-06
6.10212e-06
6.10216e-06
6.10218e-06
6.10224e-06
6.10236e-06
6.10257e-06
6.10278e-06
6.10404e-06
6.10381e-06
6.10234e-06
6.10182e-06
6.10138e-06
6.10112e-06
6.10094e-06
6.10085e-06
6.10089e-06
6.10098e-06
6.10109e-06
6.10121e-06
6.10132e-06
6.10142e-06
6.10151e-06
6.10159e-06
6.10165e-06
6.10171e-06
6.10177e-06
6.10183e-06
6.1019e-06
6.10198e-06
6.10209e-06
6.10223e-06
6.1024e-06
6.10263e-06
6.10295e-06
6.10338e-06
6.10396e-06
6.10471e-06
6.10564e-06
6.10665e-06
6.10827e-06
6.10776e-06
6.11863e-06
6.08144e-06
6.24439e-06
5.74285e-06
6.91937e-06
6.83512e-06
8.79166e-08
6.10282e-06
6.10261e-06
6.10174e-06
6.10046e-06
6.10063e-06
6.10072e-06
6.10046e-06
6.10002e-06
6.09964e-06
6.09936e-06
6.09918e-06
6.09902e-06
6.09888e-06
6.0988e-06
6.09876e-06
6.09878e-06
6.09884e-06
6.09895e-06
6.0991e-06
6.09929e-06
6.09952e-06
6.09979e-06
6.10008e-06
6.10038e-06
6.10069e-06
6.10098e-06
6.10125e-06
6.1015e-06
6.10172e-06
6.1019e-06
6.10204e-06
6.10214e-06
6.10218e-06
6.1022e-06
6.10227e-06
6.10241e-06
6.1026e-06
6.10358e-06
6.10356e-06
6.10207e-06
6.10157e-06
6.10113e-06
6.10093e-06
6.10081e-06
6.10079e-06
6.10088e-06
6.101e-06
6.10112e-06
6.10125e-06
6.10138e-06
6.10148e-06
6.10158e-06
6.10167e-06
6.10174e-06
6.10181e-06
6.10188e-06
6.10194e-06
6.10201e-06
6.10209e-06
6.10218e-06
6.1023e-06
6.10245e-06
6.10264e-06
6.1029e-06
6.10327e-06
6.10376e-06
6.1044e-06
6.10522e-06
6.1061e-06
6.1076e-06
6.10743e-06
6.11455e-06
6.09741e-06
6.15233e-06
6.07663e-06
5.87291e-06
8.48994e-06
1.69959e-06
6.10254e-06
6.10244e-06
6.10164e-06
6.10041e-06
6.10049e-06
6.10054e-06
6.10027e-06
6.09985e-06
6.09948e-06
6.0992e-06
6.09902e-06
6.09885e-06
6.09872e-06
6.09864e-06
6.09861e-06
6.09863e-06
6.09869e-06
6.09879e-06
6.09893e-06
6.09911e-06
6.09932e-06
6.09958e-06
6.09986e-06
6.10016e-06
6.10047e-06
6.10076e-06
6.10104e-06
6.10129e-06
6.10153e-06
6.10174e-06
6.10192e-06
6.10205e-06
6.10215e-06
6.10218e-06
6.10222e-06
6.1023e-06
6.10245e-06
6.1033e-06
6.10328e-06
6.10183e-06
6.10134e-06
6.10091e-06
6.10078e-06
6.10073e-06
6.10076e-06
6.10087e-06
6.10101e-06
6.10115e-06
6.1013e-06
6.10143e-06
6.10155e-06
6.10166e-06
6.10176e-06
6.10185e-06
6.10193e-06
6.102e-06
6.10207e-06
6.10214e-06
6.10222e-06
6.10231e-06
6.10242e-06
6.10255e-06
6.10271e-06
6.10293e-06
6.10324e-06
6.10366e-06
6.1042e-06
6.1049e-06
6.1057e-06
6.10689e-06
6.10754e-06
6.1104e-06
6.11002e-06
6.10402e-06
6.19484e-06
5.73151e-06
7.57467e-06
4.60429e-06
6.10228e-06
6.10225e-06
6.10152e-06
6.10035e-06
6.10035e-06
6.10035e-06
6.10009e-06
6.09968e-06
6.09933e-06
6.09906e-06
6.09885e-06
6.09869e-06
6.09857e-06
6.0985e-06
6.09848e-06
6.0985e-06
6.09855e-06
6.09865e-06
6.09877e-06
6.09894e-06
6.09913e-06
6.09937e-06
6.09964e-06
6.09993e-06
6.10023e-06
6.10052e-06
6.1008e-06
6.10106e-06
6.10132e-06
6.10155e-06
6.10175e-06
6.10193e-06
6.10206e-06
6.10215e-06
6.10216e-06
6.1022e-06
6.10231e-06
6.10304e-06
6.10303e-06
6.1016e-06
6.10114e-06
6.10074e-06
6.10068e-06
6.10068e-06
6.10074e-06
6.10088e-06
6.10103e-06
6.10119e-06
6.10134e-06
6.10149e-06
6.10162e-06
6.10174e-06
6.10185e-06
6.10195e-06
6.10204e-06
6.10211e-06
6.10219e-06
6.10227e-06
6.10235e-06
6.10243e-06
6.10253e-06
6.10266e-06
6.1028e-06
6.10299e-06
6.10326e-06
6.10362e-06
6.10409e-06
6.10469e-06
6.10542e-06
6.10634e-06
6.10747e-06
6.1081e-06
6.11388e-06
6.09441e-06
6.18549e-06
5.89155e-06
6.61553e-06
6.15359e-06
6.10202e-06
6.10205e-06
6.10139e-06
6.10027e-06
6.10021e-06
6.10018e-06
6.09991e-06
6.09951e-06
6.09917e-06
6.09891e-06
6.0987e-06
6.09853e-06
6.09843e-06
6.09837e-06
6.09835e-06
6.09837e-06
6.09842e-06
6.0985e-06
6.09861e-06
6.09876e-06
6.09894e-06
6.09916e-06
6.09942e-06
6.0997e-06
6.1e-06
6.10028e-06
6.10056e-06
6.10084e-06
6.10111e-06
6.10136e-06
6.10159e-06
6.10179e-06
6.10196e-06
6.10209e-06
6.10215e-06
6.10218e-06
6.10224e-06
6.10285e-06
6.10284e-06
6.10139e-06
6.10096e-06
6.10061e-06
6.1006e-06
6.10065e-06
6.10073e-06
6.10089e-06
6.10106e-06
6.10122e-06
6.1014e-06
6.10155e-06
6.1017e-06
6.10183e-06
6.10195e-06
6.10205e-06
6.10215e-06
6.10224e-06
6.10232e-06
6.1024e-06
6.10249e-06
6.10258e-06
6.10267e-06
6.10279e-06
6.10292e-06
6.10309e-06
6.10332e-06
6.10363e-06
6.10404e-06
6.10457e-06
6.10523e-06
6.10598e-06
6.10716e-06
6.10736e-06
6.11263e-06
6.1003e-06
6.1461e-06
6.0442e-06
6.17113e-06
6.41695e-06
6.10178e-06
6.10185e-06
6.10125e-06
6.10019e-06
6.10007e-06
6.1e-06
6.09972e-06
6.09933e-06
6.099e-06
6.09875e-06
6.09854e-06
6.09839e-06
6.09829e-06
6.09824e-06
6.09822e-06
6.09824e-06
6.09828e-06
6.09835e-06
6.09845e-06
6.09859e-06
6.09875e-06
6.09896e-06
6.09921e-06
6.09948e-06
6.09976e-06
6.10004e-06
6.10032e-06
6.1006e-06
6.10088e-06
6.10114e-06
6.10139e-06
6.10162e-06
6.10182e-06
6.10198e-06
6.1021e-06
6.10214e-06
6.10217e-06
6.10268e-06
6.10269e-06
6.10119e-06
6.10081e-06
6.10051e-06
6.10055e-06
6.10062e-06
6.10072e-06
6.1009e-06
6.10108e-06
6.10126e-06
6.10145e-06
6.10161e-06
6.10177e-06
6.10191e-06
6.10204e-06
6.10215e-06
6.10226e-06
6.10236e-06
6.10245e-06
6.10254e-06
6.10263e-06
6.10272e-06
6.10282e-06
6.10293e-06
6.10305e-06
6.1032e-06
6.10341e-06
6.10368e-06
6.10404e-06
6.1045e-06
6.10509e-06
6.10576e-06
6.10678e-06
6.10728e-06
6.11034e-06
6.10685e-06
6.11945e-06
6.11381e-06
6.06177e-06
6.28566e-06
6.10155e-06
6.10164e-06
6.1011e-06
6.1001e-06
6.09992e-06
6.09982e-06
6.09953e-06
6.09915e-06
6.09883e-06
6.09858e-06
6.09838e-06
6.09824e-06
6.09815e-06
6.0981e-06
6.09808e-06
6.0981e-06
6.09813e-06
6.0982e-06
6.09829e-06
6.09841e-06
6.09857e-06
6.09876e-06
6.099e-06
6.09926e-06
6.09953e-06
6.0998e-06
6.10008e-06
6.10036e-06
6.10064e-06
6.10091e-06
6.10118e-06
6.10142e-06
6.10165e-06
6.10184e-06
6.10199e-06
6.10208e-06
6.10211e-06
6.10252e-06
6.10256e-06
6.10101e-06
6.10068e-06
6.10042e-06
6.1005e-06
6.10059e-06
6.10072e-06
6.10091e-06
6.10111e-06
6.1013e-06
6.1015e-06
6.10168e-06
6.10184e-06
6.10199e-06
6.10213e-06
6.10226e-06
6.10237e-06
6.10248e-06
6.10258e-06
6.10268e-06
6.10278e-06
6.10287e-06
6.10297e-06
6.10308e-06
6.1032e-06
6.10334e-06
6.10352e-06
6.10377e-06
6.10408e-06
6.10449e-06
6.10501e-06
6.10563e-06
6.10646e-06
6.10725e-06
6.10876e-06
6.10983e-06
6.1095e-06
6.12725e-06
6.074e-06
6.16502e-06
6.10133e-06
6.10144e-06
6.10095e-06
6.09999e-06
6.09977e-06
6.09964e-06
6.09934e-06
6.09896e-06
6.09865e-06
6.09841e-06
6.09822e-06
6.09809e-06
6.098e-06
6.09795e-06
6.09794e-06
6.09795e-06
6.09798e-06
6.09804e-06
6.09812e-06
6.09824e-06
6.09838e-06
6.09857e-06
6.09879e-06
6.09904e-06
6.0993e-06
6.09956e-06
6.09983e-06
6.1001e-06
6.10038e-06
6.10067e-06
6.10094e-06
6.10121e-06
6.10146e-06
6.10168e-06
6.10186e-06
6.10199e-06
6.10201e-06
6.10233e-06
6.10242e-06
6.10085e-06
6.10055e-06
6.10034e-06
6.10045e-06
6.10056e-06
6.10071e-06
6.10093e-06
6.10113e-06
6.10134e-06
6.10155e-06
6.10174e-06
6.10191e-06
6.10207e-06
6.10222e-06
6.10236e-06
6.10249e-06
6.1026e-06
6.10271e-06
6.10282e-06
6.10293e-06
6.10303e-06
6.10313e-06
6.10325e-06
6.10336e-06
6.1035e-06
6.10366e-06
6.10388e-06
6.10416e-06
6.10452e-06
6.10498e-06
6.10555e-06
6.10626e-06
6.10713e-06
6.10802e-06
6.11016e-06
6.10823e-06
6.12152e-06
6.10051e-06
6.11774e-06
6.10112e-06
6.10124e-06
6.10078e-06
6.09988e-06
6.09962e-06
6.09945e-06
6.09915e-06
6.09877e-06
6.09846e-06
6.09823e-06
6.09805e-06
6.09792e-06
6.09784e-06
6.0978e-06
6.09778e-06
6.09779e-06
6.09783e-06
6.09788e-06
6.09796e-06
6.09807e-06
6.0982e-06
6.09837e-06
6.09858e-06
6.09882e-06
6.09906e-06
6.09932e-06
6.09958e-06
6.09985e-06
6.10013e-06
6.10042e-06
6.10071e-06
6.10099e-06
6.10125e-06
6.1015e-06
6.1017e-06
6.10188e-06
6.1019e-06
6.10213e-06
6.10226e-06
6.10069e-06
6.10043e-06
6.10026e-06
6.1004e-06
6.10054e-06
6.10071e-06
6.10094e-06
6.10116e-06
6.10138e-06
6.1016e-06
6.1018e-06
6.10198e-06
6.10216e-06
6.10231e-06
6.10246e-06
6.1026e-06
6.10272e-06
6.10285e-06
6.10296e-06
6.10308e-06
6.10319e-06
6.1033e-06
6.10342e-06
6.10354e-06
6.10367e-06
6.10383e-06
6.10403e-06
6.10428e-06
6.1046e-06
6.10501e-06
6.10552e-06
6.10614e-06
6.10697e-06
6.10774e-06
6.10956e-06
6.10918e-06
6.11512e-06
6.11323e-06
6.11087e-06
6.10092e-06
6.10103e-06
6.10061e-06
6.09975e-06
6.09946e-06
6.09926e-06
6.09894e-06
6.09857e-06
6.09827e-06
6.09805e-06
6.09787e-06
6.09775e-06
6.09767e-06
6.09763e-06
6.09762e-06
6.09763e-06
6.09766e-06
6.09772e-06
6.09779e-06
6.09789e-06
6.09801e-06
6.09817e-06
6.09837e-06
6.09859e-06
6.09883e-06
6.09907e-06
6.09932e-06
6.09959e-06
6.09987e-06
6.10016e-06
6.10045e-06
6.10074e-06
6.10102e-06
6.10129e-06
6.10152e-06
6.10173e-06
6.10181e-06
6.10197e-06
6.10213e-06
6.10054e-06
6.10032e-06
6.10019e-06
6.10036e-06
6.10052e-06
6.10071e-06
6.10095e-06
6.10119e-06
6.10142e-06
6.10165e-06
6.10186e-06
6.10205e-06
6.10224e-06
6.1024e-06
6.10256e-06
6.10271e-06
6.10284e-06
6.10298e-06
6.1031e-06
6.10322e-06
6.10334e-06
6.10346e-06
6.10359e-06
6.10371e-06
6.10384e-06
6.10399e-06
6.10418e-06
6.10441e-06
6.10471e-06
6.10508e-06
6.10554e-06
6.1061e-06
6.10684e-06
6.10762e-06
6.10895e-06
6.10978e-06
6.11207e-06
6.11531e-06
6.11433e-06
6.10072e-06
6.10084e-06
6.10044e-06
6.09961e-06
6.09929e-06
6.09906e-06
6.09873e-06
6.09837e-06
6.09807e-06
6.09785e-06
6.09768e-06
6.09757e-06
6.0975e-06
6.09746e-06
6.09745e-06
6.09746e-06
6.09749e-06
6.09754e-06
6.09761e-06
6.0977e-06
6.09782e-06
6.09797e-06
6.09815e-06
6.09836e-06
6.09859e-06
6.09882e-06
6.09906e-06
6.09932e-06
6.0996e-06
6.09988e-06
6.10018e-06
6.10048e-06
6.10077e-06
6.10105e-06
6.10131e-06
6.10154e-06
6.10169e-06
6.1018e-06
6.102e-06
6.10039e-06
6.10021e-06
6.10012e-06
6.10031e-06
6.10049e-06
6.1007e-06
6.10096e-06
6.10121e-06
6.10145e-06
6.1017e-06
6.10191e-06
6.10212e-06
6.10231e-06
6.10249e-06
6.10266e-06
6.10281e-06
6.10296e-06
6.1031e-06
6.10324e-06
6.10337e-06
6.1035e-06
6.10363e-06
6.10376e-06
6.10389e-06
6.10402e-06
6.10417e-06
6.10435e-06
6.10456e-06
6.10483e-06
6.10517e-06
6.10559e-06
6.10611e-06
6.10677e-06
6.10754e-06
6.10859e-06
6.10979e-06
6.11122e-06
6.1139e-06
6.11669e-06
6.10054e-06
6.10064e-06
6.10026e-06
6.09947e-06
6.09911e-06
6.09886e-06
6.09852e-06
6.09815e-06
6.09786e-06
6.09765e-06
6.09749e-06
6.09738e-06
6.09731e-06
6.09728e-06
6.09727e-06
6.09728e-06
6.09731e-06
6.09736e-06
6.09742e-06
6.09751e-06
6.09762e-06
6.09775e-06
6.09793e-06
6.09813e-06
6.09834e-06
6.09856e-06
6.09879e-06
6.09905e-06
6.09932e-06
6.0996e-06
6.0999e-06
6.1002e-06
6.1005e-06
6.1008e-06
6.10108e-06
6.10133e-06
6.10154e-06
6.10159e-06
6.10184e-06
6.10025e-06
6.1001e-06
6.10005e-06
6.10026e-06
6.10046e-06
6.10069e-06
6.10097e-06
6.10123e-06
6.10149e-06
6.10174e-06
6.10197e-06
6.10219e-06
6.10239e-06
6.10258e-06
6.10275e-06
6.10292e-06
6.10308e-06
6.10323e-06
6.10337e-06
6.10352e-06
6.10366e-06
6.10379e-06
6.10393e-06
6.10407e-06
6.1042e-06
6.10435e-06
6.10452e-06
6.10473e-06
6.10498e-06
6.10529e-06
6.10567e-06
6.10615e-06
6.10675e-06
6.10748e-06
6.1084e-06
6.10955e-06
6.11106e-06
6.11248e-06
6.11679e-06
6.10036e-06
6.10044e-06
6.10007e-06
6.09931e-06
6.09893e-06
6.09864e-06
6.0983e-06
6.09793e-06
6.09764e-06
6.09744e-06
6.09728e-06
6.09718e-06
6.09712e-06
6.09709e-06
6.09708e-06
6.09709e-06
6.09712e-06
6.09716e-06
6.09722e-06
6.0973e-06
6.0974e-06
6.09753e-06
6.09769e-06
6.09788e-06
6.09808e-06
6.09829e-06
6.09852e-06
6.09876e-06
6.09902e-06
6.0993e-06
6.0996e-06
6.0999e-06
6.10021e-06
6.10052e-06
6.10082e-06
6.10109e-06
6.10135e-06
6.10141e-06
6.10171e-06
6.1001e-06
6.09999e-06
6.09997e-06
6.10021e-06
6.10044e-06
6.10068e-06
6.10097e-06
6.10125e-06
6.10152e-06
6.10178e-06
6.10202e-06
6.10225e-06
6.10246e-06
6.10266e-06
6.10284e-06
6.10302e-06
6.10319e-06
6.10335e-06
6.10351e-06
6.10366e-06
6.10381e-06
6.10396e-06
6.10411e-06
6.10425e-06
6.10439e-06
6.10454e-06
6.10471e-06
6.10491e-06
6.10514e-06
6.10543e-06
6.10579e-06
6.10623e-06
6.10678e-06
6.10745e-06
6.10831e-06
6.10931e-06
6.11094e-06
6.11173e-06
6.116e-06
6.10018e-06
6.10024e-06
6.09988e-06
6.09914e-06
6.09873e-06
6.09842e-06
6.09807e-06
6.0977e-06
6.09742e-06
6.09722e-06
6.09706e-06
6.09696e-06
6.09691e-06
6.09688e-06
6.09687e-06
6.09688e-06
6.09691e-06
6.09695e-06
6.09701e-06
6.09708e-06
6.09718e-06
6.0973e-06
6.09745e-06
6.09762e-06
6.09781e-06
6.09801e-06
6.09823e-06
6.09846e-06
6.09871e-06
6.09899e-06
6.09928e-06
6.09959e-06
6.0999e-06
6.10022e-06
6.10054e-06
6.10083e-06
6.10111e-06
6.10123e-06
6.10159e-06
6.09996e-06
6.09988e-06
6.0999e-06
6.10016e-06
6.1004e-06
6.10067e-06
6.10097e-06
6.10126e-06
6.10155e-06
6.10182e-06
6.10207e-06
6.10231e-06
6.10253e-06
6.10274e-06
6.10293e-06
6.10312e-06
6.1033e-06
6.10347e-06
6.10364e-06
6.10381e-06
6.10396e-06
6.10412e-06
6.10428e-06
6.10443e-06
6.10458e-06
6.10474e-06
6.1049e-06
6.10509e-06
6.10532e-06
6.10559e-06
6.10593e-06
6.10633e-06
6.10684e-06
6.10746e-06
6.10827e-06
6.10915e-06
6.11075e-06
6.11136e-06
6.11521e-06
6.1e-06
6.10005e-06
6.09969e-06
6.09896e-06
6.09853e-06
6.0982e-06
6.09783e-06
6.09746e-06
6.09718e-06
6.09698e-06
6.09684e-06
6.09674e-06
6.09668e-06
6.09666e-06
6.09665e-06
6.09666e-06
6.09669e-06
6.09673e-06
6.09678e-06
6.09685e-06
6.09693e-06
6.09704e-06
6.09718e-06
6.09735e-06
6.09753e-06
6.09771e-06
6.09792e-06
6.09814e-06
6.09839e-06
6.09865e-06
6.09894e-06