/*--------------------------------*- C++ -*----------------------------------*\
| =========                 |                                                 |
| \\      /  F ield         | OpenFOAM: The Open Source CFD Toolbox           |
|  \\    /   O peration     | Version:  2312                                  |
|   \\  /    A nd           | Website:  www.openfoam.com                      |
|    \\/     M anipulation  |                                                 |
\*---------------------------------------------------------------------------*/
FoamFile
{
    version     2.0;
    format      ascii;
    arch        "LSB;label=32;scalar=64";
    class       volScalarField;
    location    "500";
    object      turbulenceProperties:epsilon;
}
// * * * * * * * * * * * * * * * * * * * * * * * * * * * * * * * * * * * * * //

dimensions      [0 2 -3 0 0 0 0];

internalField   nonuniform List<scalar> 
10720
(
0.259337
0.340058
0.452943
0.623532
0.840155
1.1348
1.53073
2.0349
2.68401
3.51442
4.57782
5.96433
7.80215
10.2908
13.7709
18.7578
26.236
37.3536
56.0415
83.0176
139.624
211.741
434.989
739.193
736.51
667.506
637.51
637.503
643.413
639.724
623.037
593.5
548.538
489.468
416.609
334.415
232.372
145.749
16.2712
0.194102
0.147051
0.100346
0.066654
0.0405369
0.0221682
0.0111769
0.00631144
0.00685256
0.0122583
0.0258981
0.0542433
0.107193
0.19773
0.340206
0.553773
0.870457
1.35303
2.122
3.40241
5.64713
9.71468
17.6458
33.2324
67.67
140.858
318.995
663.28
945.05
1066.93
1100.19
1101.75
1088.14
1062.38
1025.39
978.923
912.872
836.941
619.376
0.00736068
0.00727969
0.00711408
0.00670935
0.0061062
0.00544777
0.00471907
0.00396206
0.00327805
0.00267032
0.00214888
0.00181988
0.00177254
0.00210475
0.00330692
0.00670947
0.0165589
0.0442059
0.139045
0.450137
1.75316
6.23289
23.3368
83.5399
166.383
235.268
278.482
285.118
250.995
193.152
135.853
91.8917
63.493
45.7217
34.2675
26.5008
21.7452
17.5735
20.2062
0.00722705
0.0070314
0.00664091
0.00608257
0.00535916
0.00447577
0.00354115
0.00273952
0.002091
0.00153415
0.00108411
0.00075735
0.000526721
0.000363723
0.000249043
0.000169131
0.00011332
7.46795e-05
4.72825e-05
2.7571e-05
1.31807e-05
4.21845e-06
4.013e-07
6.84177e-09
5.59466e-08
0.000986782
0.00606625
0.0512887
0.170777
0.319801
0.466711
0.615417
0.7739
0.946813
1.13459
1.34803
1.59537
2.20741
4.09706
0.00330241
0.00325028
0.00310516
0.00288981
0.00267285
0.00244421
0.00222347
0.00203384
0.00187744
0.00176035
0.00167224
0.00162238
0.00160869
0.00163575
0.00164327
0.00155641
0.0011586
0.000901368
4.1263e-05
0.0155189
0.0281706
0.00888079
0.000326481
0.0405405
0.557874
2.55074
7.81668
19.953
42.2068
70.4382
91.5228
94.1912
80.0762
60.6735
44.1686
31.9657
23.9919
16.9409
20.4951
0.00335422
0.0033462
0.00332862
0.00321141
0.00300838
0.00268226
0.00226319
0.00182811
0.00146527
0.00113382
0.000824579
0.000571969
0.000384965
0.000253508
0.000165598
0.000108228
7.19473e-05
4.93524e-05
3.55846e-05
2.70797e-05
2.1892e-05
1.88162e-05
1.72177e-05
1.63646e-05
1.63056e-05
1.61195e-05
1.82309e-05
6.37653e-06
0.000167584
0.000992371
0.00208856
0.00364295
0.0095926
0.0265269
0.0598482
0.110648
0.17701
0.222103
0.549906
0.00235402
0.00236378
0.0023401
0.0023013
0.00222224
0.00210713
0.0019679
0.00180075
0.0016188
0.00142882
0.00123791
0.00105123
0.000872799
0.000707453
0.000557404
0.000419692
0.000300556
0.000214174
0.000127937
3.41708e-05
2.66667e-07
0.000540388
0.00271325
0.0142948
0.0372049
0.0536317
0.00734714
0.00295122
0.0184303
0.437234
3.19982
11.6221
25.006
35.4635
37.1669
32.3899
26.5965
19.7611
21.4737
0.00230377
0.00222869
0.00211335
0.0019785
0.0018157
0.00161311
0.00139175
0.00117414
0.000967213
0.000765316
0.000581454
0.000431985
0.000318371
0.000234336
0.000173349
0.000129291
9.78789e-05
7.55207e-05
5.96704e-05
4.81438e-05
3.96878e-05
3.3216e-05
2.79053e-05
2.28189e-05
1.81257e-05
1.4635e-05
1.22458e-05
1.06583e-05
8.88559e-06
6.83613e-06
3.86278e-06
1.53578e-06
2.28733e-05
1.51598e-05
6.81562e-05
0.000864177
0.00492986
0.0189396
0.139757
0.00132482
0.00132014
0.0012996
0.00126338
0.00120833
0.00113566
0.00105084
0.000956771
0.000858101
0.000761854
0.000671392
0.000589994
0.000520285
0.000462944
0.000417794
0.000381586
0.000345592
0.000302753
0.000264063
0.000215356
9.23202e-05
2.03256e-06
1.1068e-07
3.67047e-09
0
0
0.0038585
0.0120003
0.0348514
0.0145936
0.0235628
0.0157544
0.169023
2.41615
9.07333
16.895
21.0054
19.7603
21.8239
0.00131797
0.00129939
0.00126279
0.00120527
0.00112645
0.00101935
0.000898222
0.000776694
0.000656843
0.000536839
0.000424835
0.000327908
0.000248292
0.000184947
0.000136048
9.92585e-05
7.22564e-05
5.28539e-05
3.91578e-05
2.95089e-05
2.27133e-05
1.78296e-05
1.41648e-05
1.10619e-05
8.30119e-06
6.10312e-06
4.59806e-06
3.68303e-06
3.31212e-06
2.8327e-06
4.1713e-06
2.07447e-07
8.55188e-06
5.18176e-05
1.07998e-05
3.45146e-05
7.73526e-05
0.000255741
0.0150592
0.000890099
0.000897706
0.000896981
0.000890587
0.000873176
0.000845325
0.000808729
0.000762612
0.000708804
0.000649674
0.00058667
0.000522166
0.000458395
0.000396983
0.000339299
0.00028428
0.000229928
0.000179981
0.000138986
0.00010765
8.37947e-05
6.06949e-05
2.7505e-05
1.36095e-06
4.94945e-08
9.79049e-09
3.86564e-10
0
0
0.00128031
0.00597303
0.0333253
0.00524441
0.0420007
0.0462467
1.65801
7.51555
13.9859
19.8663
0.000874042
0.00085209
0.000820657
0.000780079
0.000729507
0.00066561
0.000595699
0.000524997
0.000453185
0.000379941
0.00031015
0.000247713
0.000194527
0.00015075
0.00011578
8.85947e-05
6.79151e-05
5.24539e-05
4.10264e-05
3.25765e-05
2.62687e-05
2.1413e-05
1.74699e-05
1.39443e-05
1.07036e-05
8.01571e-06
5.98799e-06
4.51792e-06
3.44446e-06
2.66253e-06
2.07183e-06
1.59713e-06
1.01402e-06
5.10367e-07
1.5518e-07
2.29059e-06
9.60851e-06
5.12467e-05
0.00112198
0.000582461
0.000587587
0.000588407
0.000585434
0.000576144
0.000560234
0.000538358
0.000510265
0.000476733
0.000439275
0.00039912
0.000357819
0.000317053
0.000278194
0.000242175
0.00021001
0.000182832
0.000159216
0.000136763
0.000115297
9.6508e-05
8.0012e-05
6.7028e-05
4.87796e-05
2.39033e-05
6.35369e-06
1.92659e-07
1.36638e-08
4.0969e-09
3.46358e-11
0
0
0.000368757
0.0178003
0.0125018
0.0336811
0.415364
4.90055
14.1045
0.000572936
0.000560162
0.000541835
0.000517097
0.000485864
0.000447216
0.000405699
0.000362747
0.000318225
0.000272755
0.000228739
0.00018818
0.000152256
0.000121385
9.55991e-05
7.46306e-05
5.7954e-05
4.49659e-05
3.50183e-05
2.74511e-05
2.16954e-05
1.72523e-05
1.37026e-05
1.06764e-05
8.02405e-06
5.85968e-06
4.23748e-06
3.07547e-06
2.24987e-06
1.67435e-06
1.29948e-06
1.08203e-06
9.67257e-07
8.21542e-07
4.24935e-07
3.19041e-08
6.60805e-10
8.581e-13
2.63498e-05
0.000400124
0.000405605
0.000408877
0.0004102
0.000407957
0.000401861
0.000392237
0.000378527
0.000360952
0.000340167
0.00031647
0.000290682
0.000263657
0.000236154
0.000208924
0.000182707
0.000157344
0.00013247
0.000109444
8.96868e-05
7.39177e-05
6.21492e-05
5.39124e-05
4.81275e-05
4.04254e-05
2.9191e-05
1.73295e-05
7.57341e-06
2.73049e-06
1.87799e-08
4.25416e-09
4.05858e-12
0
0
0.00112662
0.0241109
0.0272504
0.465336
6.3849
0.000391959
0.000382231
0.000369381
0.000352666
0.000332264
0.000307828
0.0002822
0.00025524
0.000226966
0.000198169
0.000169886
0.000143243
0.000118957
9.73946e-05
7.87667e-05
6.31164e-05
5.02562e-05
3.99306e-05
3.17885e-05
2.54258e-05
2.04513e-05
1.651e-05
1.32879e-05
1.05114e-05
8.06642e-06
6.03469e-06
4.4625e-06
3.28965e-06
2.41531e-06
1.76318e-06
1.28436e-06
9.34607e-07
6.79207e-07
4.92153e-07
3.75352e-07
2.62483e-07
1.39499e-07
1.1303e-09
1.86216e-07
0.000278424
0.000282829
0.000286061
0.000288089
0.000288015
0.000285549
0.000280778
0.000273243
0.000262995
0.000250287
0.00023528
0.00021842
0.000200249
0.000181297
0.000162183
0.000143375
0.000125408
0.000108978
9.40598e-05
8.05576e-05
6.86044e-05
5.85734e-05
5.03189e-05
4.33518e-05
3.68606e-05
2.99586e-05
2.3244e-05
1.75039e-05
1.27543e-05
6.89746e-06
3.01658e-06
3.54404e-09
9.95568e-10
0
0
0
0.00983332
0.0256726
1.52127
0.000272442
0.000265599
0.000256885
0.000245536
0.000232044
0.000216263
0.000199877
0.000182479
0.000164164
0.000145555
0.000127122
0.000109452
9.29634e-05
7.79057e-05
6.44818e-05
5.28127e-05
4.28948e-05
3.46459e-05
2.7912e-05
2.24828e-05
1.81242e-05
1.45991e-05
1.16863e-05
9.19675e-06
7.0412e-06
5.25463e-06
3.86647e-06
2.82985e-06
2.0629e-06
1.49894e-06
1.0928e-06
8.11173e-07
6.24601e-07
5.09041e-07
4.47791e-07
4.56562e-07
5.24071e-07
5.98118e-07
3.97055e-10
0.000197876
0.000201518
0.000204582
0.000206969
0.000208084
0.000207795
0.000206066
0.000202535
0.000197192
0.000190107
0.000181269
0.000170897
0.000159263
0.000146657
0.00013344
0.000119952
0.000106597
9.34611e-05
8.07414e-05
6.90237e-05
5.88348e-05
5.04216e-05
4.35923e-05
3.75528e-05
3.15277e-05
2.53859e-05
1.9846e-05
1.56272e-05
1.26991e-05
1.05212e-05
8.60429e-06
4.59931e-06
7.74597e-07
3.49645e-09
0
0
8.18889e-09
0.000567644
0.189932
0.00019326
0.000188239
0.000182074
0.00017413
0.000164965
0.000154567
0.000143757
0.000132247
0.00012019
0.000107952
9.57607e-05
8.39325e-05
7.26817e-05
6.21556e-05
5.25255e-05
4.39135e-05
3.63665e-05
2.99025e-05
2.44659e-05
1.99587e-05
1.62487e-05
1.31847e-05
1.06165e-05
8.41543e-06
6.51119e-06
4.92237e-06
3.66882e-06
2.71557e-06
1.9978e-06
1.45972e-06
1.06233e-06
7.74742e-07
5.69411e-07
4.30194e-07
3.40773e-07
3.23666e-07
3.14144e-07
8.75269e-07
1.36372e-07
0.000142638
0.000145535
0.000148158
0.00015039
0.00015183
0.000152426
0.000152072
0.000150546
0.000147767
0.000143751
0.000138432
0.000131905
0.000124303
0.000115783
0.000106587
9.69672e-05
8.71737e-05
7.75131e-05
6.82553e-05
5.95983e-05
5.17876e-05
4.49543e-05
3.90798e-05
3.37622e-05
2.84159e-05
2.29238e-05
1.78275e-05
1.37946e-05
1.09526e-05
9.10644e-06
7.84851e-06
7.11474e-06
5.47155e-06
1.85401e-06
4.77426e-09
0
0
0.000477555
0.0275084
0.000139129
0.000135442
0.000131053
0.000125411
0.000119064
0.000112079
0.000104771
9.69956e-05
8.89311e-05
8.07651e-05
7.2591e-05
6.45887e-05
5.68718e-05
4.95165e-05
4.26256e-05
3.63003e-05
3.05998e-05
2.55683e-05
2.12133e-05
1.74994e-05
1.436e-05
1.17102e-05
9.45691e-06
7.51614e-06
5.84107e-06
4.43992e-06
3.32318e-06
2.46504e-06
1.81506e-06
1.32715e-06
9.67463e-07
7.09337e-07
5.2973e-07
4.12178e-07
3.40302e-07
3.3172e-07
3.28947e-07
6.58741e-07
1.03331e-06
0.000104215
0.000106523
0.000108714
0.000110683
0.000112174
0.000113149
0.000113528
0.000113126
0.000111884
0.000109782
0.000106741
0.000102791
9.79819e-05
9.2393e-05
8.61546e-05
7.9422e-05
7.23783e-05
6.52408e-05
5.81234e-05
5.12316e-05
4.48767e-05
3.92327e-05
3.4286e-05
2.97757e-05
2.52902e-05
2.0693e-05
1.63324e-05
1.27176e-05
1.0023e-05
8.1005e-06
6.69243e-06
5.84402e-06
5.44001e-06
5.02735e-06
2.17582e-06
2.92142e-09
0
0.000104117
0.00837749
0.000101532
9.87722e-05
9.55981e-05
9.15382e-05
8.70658e-05
8.22715e-05
7.72343e-05
7.18929e-05
6.64161e-05
6.08818e-05
5.53376e-05
4.98781e-05
4.45551e-05
3.93961e-05
3.44733e-05
2.98518e-05
2.55774e-05
2.1703e-05
1.82529e-05
1.52329e-05
1.26191e-05
1.03675e-05
8.42146e-06
6.73087e-06
5.27007e-06
4.04136e-06
3.05088e-06
2.27965e-06
1.68902e-06
1.24147e-06
9.079e-07
6.65304e-07
4.92825e-07
3.76358e-07
3.03221e-07
2.85481e-07
2.91868e-07
4.81932e-07
1.23034e-06
7.69962e-05
7.88237e-05
8.06166e-05
8.22862e-05
8.36586e-05
8.47149e-05
8.53986e-05
8.55624e-05
8.51547e-05
8.41486e-05
8.24673e-05
8.01127e-05
7.70922e-05
7.34307e-05
6.92058e-05
6.45125e-05
5.9464e-05
5.423e-05
4.89403e-05
4.37341e-05
3.88001e-05
3.42764e-05
3.01691e-05
2.63354e-05
2.25303e-05
1.86627e-05
1.49711e-05
1.18314e-05
9.4085e-06
7.59345e-06
6.20145e-06
5.1508e-06
4.47225e-06
4.21674e-06
4.62368e-06
1.21655e-06
6.73201e-13
3.10829e-05
0.00278387
7.49445e-05
7.28625e-05
7.05323e-05
6.75832e-05
6.43885e-05
6.10325e-05
5.75025e-05
5.37783e-05
5.00047e-05
4.62086e-05
4.24056e-05
3.86436e-05
3.49469e-05
3.13239e-05
2.78049e-05
2.44351e-05
2.1249e-05
1.82896e-05
1.55861e-05
1.31565e-05
1.10018e-05
9.10515e-06
7.43921e-06
5.97905e-06
4.71161e-06
3.63962e-06
2.76616e-06
2.07787e-06
1.54571e-06
1.13958e-06
8.35177e-07
6.12951e-07
4.55097e-07
3.48772e-07
2.82408e-07
2.64159e-07
2.71697e-07
4.0873e-07
1.03852e-06
5.74539e-05
5.88955e-05
6.03489e-05
6.17374e-05
6.29417e-05
6.39606e-05
6.47403e-05
6.5173e-05
6.5223e-05
6.48554e-05
6.40111e-05
6.26707e-05
6.08313e-05
5.8494e-05
5.56911e-05
5.24745e-05
4.8912e-05
4.51245e-05
4.12005e-05
3.72304e-05
3.33574e-05
2.97246e-05
2.63501e-05
2.3148e-05
1.99622e-05
1.67322e-05
1.36273e-05
1.09319e-05
8.79757e-06
7.15993e-06
5.88323e-06
4.87269e-06
4.09741e-06
3.56552e-06
3.4428e-06
4.79389e-06
2.6709e-12
5.70148e-07
0.000698982
5.58702e-05
5.42924e-05
5.25555e-05
5.03931e-05
4.80853e-05
4.56924e-05
4.31778e-05
4.05545e-05
3.79189e-05
3.52815e-05
3.26434e-05
3.00317e-05
2.74503e-05
2.48933e-05
2.23793e-05
1.99288e-05
1.75632e-05
1.53168e-05
1.32164e-05
1.12825e-05
9.52542e-06
7.94623e-06
6.53617e-06
5.28782e-06
4.19737e-06
3.26795e-06
2.50272e-06
1.89224e-06
1.41511e-06
1.04782e-06
7.70276e-07
5.65978e-07
4.19404e-07
3.19366e-07
2.55791e-07
2.35568e-07
2.39772e-07
3.5033e-07
8.40613e-07
4.32425e-05
4.43767e-05
4.55497e-05
4.66858e-05
4.77116e-05
4.86338e-05
4.9398e-05
4.99325e-05
5.02106e-05
5.01978e-05
4.98488e-05
4.91436e-05
4.80639e-05
4.66007e-05
4.47623e-05
4.25787e-05
4.00917e-05
3.73702e-05
3.44939e-05
3.15239e-05
2.85424e-05
2.56721e-05
2.29381e-05
2.02929e-05
1.76447e-05
1.49577e-05
1.23528e-05
1.00465e-05
8.17425e-06
6.70944e-06
5.55431e-06
4.63912e-06
3.90476e-06
3.3943e-06
2.75458e-06
4.22934e-06
1.09689e-06
4.77255e-11
4.28405e-05
4.20119e-05
4.08083e-05
3.95021e-05
3.78987e-05
3.62142e-05
3.4481e-05
3.2668e-05
3.07977e-05
2.8936e-05
2.70829e-05
2.52358e-05
2.34051e-05
2.15896e-05
1.97793e-05
1.79784e-05
1.6199e-05
1.44507e-05
1.27551e-05
1.11338e-05
9.60674e-06
8.18932e-06
6.88974e-06
5.70927e-06
4.64957e-06
3.71635e-06
2.91546e-06
2.24919e-06
1.71118e-06
1.28612e-06
9.5602e-07
7.04614e-07
5.18233e-07
3.83708e-07
2.91328e-07
2.32024e-07
2.11249e-07
2.12742e-07
2.99841e-07
6.83964e-07
3.27917e-05
3.36873e-05
3.46288e-05
3.55516e-05
3.64133e-05
3.72157e-05
3.79183e-05
3.84681e-05
3.88452e-05
3.90219e-05
3.89602e-05
3.86404e-05
3.80463e-05
3.71611e-05
3.59885e-05
3.45354e-05
3.28246e-05
3.08938e-05
2.88081e-05
2.65999e-05
2.43199e-05
2.20669e-05
1.98727e-05
1.77143e-05
1.5535e-05
1.33161e-05
1.11453e-05
9.18623e-06
7.55541e-06
6.25221e-06
5.20996e-06
4.38076e-06
3.71043e-06
3.24934e-06
2.69667e-06
2.75887e-06
3.7925e-06
4.55947e-12
3.40857e-07
3.18348e-05
3.09067e-05
2.99174e-05
2.87178e-05
2.74766e-05
2.62042e-05
2.48808e-05
2.35329e-05
2.22027e-05
2.0887e-05
1.95803e-05
1.82885e-05
1.70045e-05
1.57158e-05
1.4424e-05
1.313e-05
1.184e-05
1.05661e-05
9.3234e-06
8.12795e-06
6.99434e-06
5.93438e-06
4.95505e-06
4.06503e-06
3.27341e-06
2.58787e-06
2.01127e-06
1.54006e-06
1.16366e-06
8.68584e-07
6.41931e-07
4.72531e-07
3.4926e-07
2.63777e-07
2.08123e-07
1.8664e-07
1.85897e-07
2.53532e-07
5.55855e-07
2.50316e-05
2.57411e-05
2.64936e-05
2.7242e-05
2.7956e-05
2.86391e-05
2.92602e-05
2.97802e-05
3.01815e-05
3.0445e-05
3.05406e-05
3.04512e-05
3.0164e-05
2.96601e-05
2.89343e-05
2.79865e-05
2.68266e-05
2.54747e-05
2.39768e-05
2.23541e-05
2.06346e-05
1.88874e-05
1.7147e-05
1.54057e-05
1.36301e-05
1.18106e-05
1.00129e-05
8.36015e-06
6.95066e-06
5.79948e-06
4.86461e-06
4.11115e-06
3.50503e-06
3.0502e-06
2.71759e-06
2.11924e-06
4.55829e-06
3.54707e-11
5.25379e-18
2.42869e-05
2.35679e-05
2.28101e-05
2.1906e-05
2.09831e-05
2.00379e-05
1.90618e-05
1.8081e-05
1.71209e-05
1.6177e-05
1.52446e-05
1.43242e-05
1.34089e-05
1.24882e-05
1.1558e-05
1.06176e-05
9.66671e-06
8.71329e-06
7.76574e-06
6.83655e-06
5.93783e-06
5.08078e-06
4.2754e-06
3.5335e-06
2.86694e-06
2.28367e-06
1.78788e-06
1.37787e-06
1.04663e-06
7.84413e-07
5.81225e-07
4.28069e-07
3.15747e-07
2.37171e-07
1.85362e-07
1.63644e-07
1.61121e-07
2.12868e-07
4.48987e-07
1.92212e-05
1.97834e-05
2.03839e-05
2.09904e-05
2.15759e-05
2.21507e-05
2.26859e-05
2.31542e-05
2.35428e-05
2.38368e-05
2.40121e-05
2.40572e-05
2.39564e-05
2.36953e-05
2.32668e-05
2.26662e-05
2.18967e-05
2.09654e-05
1.99027e-05
1.87233e-05
1.74414e-05
1.60993e-05
1.47338e-05
1.33452e-05
1.19127e-05
1.04328e-05
8.95465e-06
7.57099e-06
6.36316e-06
5.35474e-06
4.52295e-06
3.84152e-06
3.29474e-06
2.85179e-06
2.61115e-06
2.00591e-06
3.35189e-06
4.72905e-07
8.02625e-11
1.86389e-05
1.80794e-05
1.7495e-05
1.68081e-05
1.61166e-05
1.54069e-05
1.46804e-05
1.39594e-05
1.32594e-05
1.25755e-05
1.19041e-05
1.12437e-05
1.05873e-05
9.92506e-06
9.25315e-06
8.56801e-06
7.86756e-06
7.15537e-06
6.43622e-06
5.71792e-06
5.01058e-06
4.32431e-06
3.66849e-06
3.05475e-06
2.49643e-06
2.00358e-06
1.58014e-06
1.22572e-06
9.36064e-07
7.04419e-07
5.23255e-07
3.85457e-07
2.83558e-07
2.11586e-07
1.63495e-07
1.41811e-07
1.37898e-07
1.77254e-07
3.60075e-07
1.48371e-05
1.52819e-05
1.57632e-05
1.62516e-05
1.67316e-05
1.72093e-05
1.76646e-05
1.80737e-05
1.84306e-05
1.87218e-05
1.89296e-05
1.90435e-05
1.90533e-05
1.89447e-05
1.87125e-05
1.8348e-05
1.78505e-05
1.72225e-05
1.6479e-05
1.56324e-05
1.4688e-05
1.36687e-05
1.26099e-05
1.15153e-05
1.03713e-05
9.17741e-06
7.97081e-06
6.82141e-06
5.79536e-06
4.91979e-06
4.18568e-06
3.57507e-06
3.0807e-06
2.672e-06
2.4232e-06
2.03194e-06
2.2812e-06
2.01284e-06
2.18887e-08
1.43798e-05
1.39425e-05
1.3489e-05
1.29644e-05
1.24406e-05
1.19039e-05
1.13584e-05
1.08239e-05
1.03085e-05
9.8089e-06
9.32111e-06
8.84304e-06
8.36885e-06
7.88992e-06
7.40221e-06
6.90202e-06
6.38583e-06
5.85442e-06
5.31034e-06
4.75856e-06
4.20532e-06
3.6589e-06
3.12816e-06
2.62494e-06
2.16172e-06
1.74804e-06
1.38851e-06
1.08399e-06
8.32212e-07
6.2875e-07
4.68103e-07
3.4476e-07
2.52791e-07
1.87191e-07
1.42799e-07
1.21487e-07
1.16547e-07
1.46248e-07
2.86606e-07
1.1506e-05
1.1859e-05
1.22442e-05
1.2638e-05
1.30294e-05
1.34247e-05
1.38062e-05
1.41582e-05
1.44748e-05
1.47462e-05
1.49589e-05
1.51055e-05
1.51771e-05
1.51631e-05
1.50562e-05
1.48499e-05
1.454e-05
1.41263e-05
1.36137e-05
1.30144e-05
1.23282e-05
1.15641e-05
1.0752e-05
9.89831e-06
8.99391e-06
8.0392e-06
7.06202e-06
6.11483e-06
5.25071e-06
4.49719e-06
3.85433e-06
3.31225e-06
2.86556e-06
2.50012e-06
2.22965e-06
2.00303e-06
1.78679e-06
2.30378e-06
5.01834e-07
1.1146e-05
1.08025e-05
1.04492e-05
1.00466e-05
9.64563e-06
9.23708e-06
8.82465e-06
8.42444e-06
8.04174e-06
7.67336e-06
7.31593e-06
6.96723e-06
6.62201e-06
6.27378e-06
5.91828e-06
5.55176e-06
5.17087e-06
4.77483e-06
4.36399e-06
3.94128e-06
3.51127e-06
3.07961e-06
2.65337e-06
2.24337e-06
1.86137e-06
1.51622e-06
1.21286e-06
9.52878e-07
7.35419e-07
5.57779e-07
4.16127e-07
3.06296e-07
2.23696e-07
1.64175e-07
1.23402e-07
1.02734e-07
9.70941e-08
1.19501e-07
2.26643e-07
8.95968e-06
9.24062e-06
9.54888e-06
9.86621e-06
1.01847e-05
1.051e-05
1.08273e-05
1.11259e-05
1.1401e-05
1.16449e-05
1.18479e-05
1.20039e-05
1.2106e-05
1.21458e-05
1.21174e-05
1.20145e-05
1.1832e-05
1.1568e-05
1.12233e-05
1.08074e-05
1.03159e-05
9.7509e-06
9.1354e-06
8.47713e-06
7.7696e-06
7.01286e-06
6.22778e-06
5.45352e-06
4.73214e-06
4.08952e-06
3.53118e-06
3.05384e-06
2.65261e-06
2.32696e-06
2.05649e-06
1.89226e-06
1.60549e-06
1.87728e-06
1.25129e-06
8.67562e-06
8.40481e-06
8.12853e-06
7.81785e-06
7.50867e-06
7.19524e-06
6.88137e-06
6.5796e-06
6.29306e-06
6.01911e-06
5.75465e-06
5.49793e-06
5.24498e-06
4.99004e-06
4.72966e-06
4.46014e-06
4.17831e-06
3.88301e-06
3.57353e-06
3.25091e-06
2.91772e-06
2.57851e-06
2.23873e-06
1.90702e-06
1.59368e-06
1.30747e-06
1.05316e-06
8.32611e-07
6.45936e-07
4.91739e-07
3.67513e-07
2.70217e-07
1.96397e-07
1.42651e-07
1.0542e-07
8.5655e-08
7.96119e-08
9.6532e-08
1.77935e-07
7.00265e-06
7.2264e-06
7.47375e-06
7.72902e-06
7.98817e-06
8.2547e-06
8.5174e-06
8.76828e-06
9.00365e-06
9.21771e-06
9.40276e-06
9.55477e-06
9.66839e-06
9.73675e-06
9.7557e-06
9.71873e-06
9.62181e-06
9.46205e-06
9.23717e-06
8.95369e-06
8.60684e-06
8.19526e-06
7.73483e-06
7.23293e-06
6.68557e-06
6.09168e-06
5.46633e-06
4.83883e-06
4.24202e-06
3.69891e-06
3.21824e-06
2.80105e-06
2.4441e-06
2.15221e-06
1.89981e-06
1.74223e-06
1.5142e-06
1.48837e-06
1.45875e-06
6.77831e-06
6.56372e-06
6.34686e-06
6.10589e-06
5.86614e-06
5.62431e-06
5.38388e-06
5.15452e-06
4.93817e-06
4.7325e-06
4.53557e-06
4.3453e-06
4.15833e-06
3.97027e-06
3.77826e-06
3.57936e-06
3.3704e-06
3.14982e-06
2.91663e-06
2.67092e-06
2.41407e-06
2.14868e-06
1.879e-06
1.61213e-06
1.35701e-06
1.12122e-06
9.09226e-07
7.23205e-07
5.63868e-07
4.30765e-07
3.22409e-07
2.36683e-07
1.71034e-07
1.22745e-07
8.89492e-08
7.02998e-08
6.41373e-08
7.70061e-08
1.38715e-07
5.49123e-06
5.66983e-06
5.86812e-06
6.07374e-06
6.28434e-06
6.50207e-06
6.71884e-06
6.92785e-06
7.12723e-06
7.31182e-06
7.47635e-06
7.6175e-06
7.73139e-06
7.81254e-06
7.85747e-06
7.8613e-06
7.81999e-06
7.73052e-06
7.58976e-06
7.40135e-06
7.16156e-06
6.86703e-06
6.52731e-06
6.1494e-06
5.73066e-06
5.26914e-06
4.77542e-06
4.27134e-06
3.78209e-06
3.32742e-06
2.91724e-06
2.55536e-06
2.24072e-06
1.97872e-06
1.75082e-06
1.58846e-06
1.41843e-06
1.25585e-06
1.31556e-06
5.3137e-06
5.14335e-06
4.97242e-06
4.78453e-06
4.5976e-06
4.41011e-06
4.22464e-06
4.0492e-06
3.88465e-06
3.72912e-06
3.58095e-06
3.43869e-06
3.29942e-06
3.15992e-06
3.01769e-06
2.86998e-06
2.71442e-06
2.54948e-06
2.37372e-06
2.18674e-06
1.98916e-06
1.78246e-06
1.56954e-06
1.35606e-06
1.14941e-06
9.56247e-07
7.80451e-07
6.24423e-07
4.89208e-07
3.74975e-07
2.80976e-07
2.05829e-07
1.47728e-07
1.0456e-07
7.40713e-08
5.66986e-08
5.06338e-08
6.05691e-08
1.07423e-07
4.31893e-06
4.46157e-06
4.6206e-06
4.78654e-06
4.95716e-06
5.13488e-06
5.31297e-06
5.48647e-06
5.65361e-06
5.81102e-06
5.95418e-06
6.08119e-06
6.18847e-06
6.2726e-06
6.3305e-06
6.35805e-06
6.35207e-06
6.30932e-06
6.227e-06
6.10637e-06
5.94461e-06
5.7382e-06
5.49123e-06
5.21049e-06
4.89366e-06
4.53858e-06
4.1524e-06
3.75113e-06
3.35368e-06
2.97666e-06
2.62981e-06
2.31851e-06
2.04339e-06
1.80931e-06
1.60519e-06
1.44398e-06
1.30297e-06
1.11221e-06
1.1136e-06
4.17784e-06
4.04275e-06
3.90744e-06
3.76036e-06
3.61397e-06
3.46783e-06
3.32402e-06
3.18876e-06
3.06264e-06
2.94408e-06
2.83192e-06
2.72477e-06
2.62034e-06
2.51592e-06
2.40964e-06
2.29947e-06
2.18327e-06
2.05958e-06
1.92699e-06
1.78486e-06
1.6332e-06
1.47271e-06
1.30529e-06
1.13525e-06
9.68624e-07
8.11037e-07
6.66161e-07
5.36003e-07
4.21888e-07
3.24382e-07
2.43263e-07
1.7772e-07
1.26561e-07
8.81705e-08
6.08323e-08
4.48483e-08
3.90646e-08
4.68658e-08
8.25935e-08
3.40597e-06
3.52001e-06
3.64762e-06
3.78165e-06
3.91983e-06
4.0647e-06
4.21064e-06
4.35392e-06
4.49344e-06
4.62625e-06
4.74929e-06
4.86095e-06
4.95865e-06
5.03987e-06
5.10193e-06
5.14211e-06
5.15734e-06
5.14488e-06
5.10223e-06
5.02886e-06
4.92355e-06
4.78197e-06
4.60527e-06
4.3995e-06
4.16306e-06
3.89304e-06
3.59403e-06
3.27755e-06
2.95775e-06
2.64793e-06
2.35735e-06
2.09178e-06
1.85309e-06
1.64564e-06
1.46289e-06
1.30974e-06
1.17961e-06
1.00078e-06
9.44087e-07
3.29366e-06
3.18627e-06
3.07884e-06
2.96333e-06
2.84826e-06
2.73373e-06
2.62174e-06
2.51693e-06
2.41957e-06
2.32858e-06
2.24293e-06
2.16145e-06
2.08238e-06
2.00381e-06
1.92405e-06
1.84133e-06
1.75409e-06
1.66104e-06
1.5609e-06
1.45275e-06
1.3364e-06
1.21205e-06
1.08088e-06
9.46043e-07
8.12387e-07
6.84457e-07
5.65583e-07
4.57541e-07
3.61734e-07
2.78917e-07
2.09263e-07
1.52387e-07
1.07561e-07
7.35999e-08
4.92358e-08
3.47016e-08
2.9331e-08
3.56167e-08
6.30967e-08
2.69234e-06
2.78375e-06
2.88625e-06
2.99436e-06
3.10635e-06
3.2242e-06
3.3436e-06
3.46146e-06
3.57739e-06
3.68869e-06
3.79333e-06
3.88991e-06
3.97681e-06
4.05173e-06
4.11302e-06
4.15847e-06
4.18551e-06
4.19192e-06
4.17537e-06
4.13459e-06
4.06916e-06
3.97517e-06
3.85135e-06
3.70311e-06
3.5289e-06
3.32579e-06
3.09647e-06
2.84918e-06
2.59436e-06
2.34225e-06
2.10099e-06
1.87634e-06
1.67093e-06
1.48835e-06
1.32524e-06
1.18337e-06
1.05901e-06
8.98446e-07
8.10068e-07
2.60297e-06
2.51737e-06
2.43182e-06
2.34087e-06
2.25011e-06
2.15998e-06
2.0724e-06
1.99065e-06
1.91509e-06
1.84473e-06
1.77888e-06
1.71651e-06
1.65624e-06
1.59656e-06
1.53624e-06
1.47387e-06
1.40807e-06
1.33775e-06
1.2619e-06
1.17963e-06
1.09042e-06
9.94175e-07
8.91567e-07
7.84939e-07
6.78082e-07
5.7478e-07
4.77659e-07
3.88433e-07
3.08395e-07
2.38409e-07
1.78909e-07
1.298e-07
9.07059e-08
6.08257e-08
3.92553e-08
2.61892e-08
2.13192e-08
2.65172e-08
4.78941e-08
2.13281e-06
2.20613e-06
2.28859e-06
2.37576e-06
2.46646e-06
2.5623e-06
2.6597e-06
2.75656e-06
2.85239e-06
2.94525e-06
3.03342e-06
3.11606e-06
3.19188e-06
3.25919e-06
3.31683e-06
3.36292e-06
3.3955e-06
3.41289e-06
3.41294e-06
3.39425e-06
3.35655e-06
3.29655e-06
3.21214e-06
3.10721e-06
2.98074e-06
2.82982e-06
2.65586e-06
2.46452e-06
2.26334e-06
2.06015e-06
1.86169e-06
1.67323e-06
1.49781e-06
1.33856e-06
1.19348e-06
1.06391e-06
9.45957e-07
8.01052e-07
6.99817e-07
2.06164e-06
1.99334e-06
1.92504e-06
1.8532e-06
1.78141e-06
1.71019e-06
1.6414e-06
1.57743e-06
1.51843e-06
1.46367e-06
1.41264e-06
1.36455e-06
1.31829e-06
1.27268e-06
1.22669e-06
1.17932e-06
1.12944e-06
1.0762e-06
1.01856e-06
9.55798e-07
8.87391e-07
8.13021e-07
7.32928e-07
6.48871e-07
5.63718e-07
4.8055e-07
4.01534e-07
3.2814e-07
2.61557e-07
2.02699e-07
1.52098e-07
1.09893e-07
7.5965e-08
4.98123e-08
3.08332e-08
1.92115e-08
1.48893e-08
1.92966e-08
3.61619e-08
1.69288e-06
1.75166e-06
1.81809e-06
1.88835e-06
1.96181e-06
2.03971e-06
2.11906e-06
2.19852e-06
2.27742e-06
2.35454e-06
2.42839e-06
2.49845e-06
2.56361e-06
2.62291e-06
2.67524e-06
2.71924e-06
2.75356e-06
2.77655e-06
2.78672e-06
2.7825e-06
2.76379e-06
2.72765e-06
2.67199e-06
2.59925e-06
2.50894e-06
2.39839e-06
2.2679e-06
2.12137e-06
1.96405e-06
1.80178e-06
1.64003e-06
1.48335e-06
1.33454e-06
1.1968e-06
1.06863e-06
9.51337e-07
8.41209e-07
7.09793e-07
6.05779e-07
1.63605e-06
1.58153e-06
1.52697e-06
1.47004e-06
1.41311e-06
1.35674e-06
1.30245e-06
1.25214e-06
1.20584e-06
1.16297e-06
1.12317e-06
1.08581e-06
1.05002e-06
1.01493e-06
9.79711e-07
9.43522e-07
9.05515e-07
8.64943e-07
8.2103e-07
7.73076e-07
7.20534e-07
6.63051e-07
6.00629e-07
5.3448e-07
4.66823e-07
4.00078e-07
3.36014e-07
2.75891e-07
2.20751e-07
1.71476e-07
1.28646e-07
9.25467e-08
6.32493e-08
4.04791e-08
2.38809e-08
1.36446e-08
9.87906e-09
1.36913e-08
2.71932e-08
1.346e-06
1.39324e-06
1.44668e-06
1.50338e-06
1.56284e-06
1.62605e-06
1.6907e-06
1.75568e-06
1.82052e-06
1.88427e-06
1.94582e-06
2.00473e-06
2.06031e-06
2.11174e-06
2.15821e-06
2.19877e-06
2.23227e-06
2.25747e-06
2.2732e-06
2.27803e-06
2.27177e-06
2.25215e-06
2.21702e-06
2.16813e-06
2.10484e-06
2.0249e-06
1.92817e-06
1.81712e-06
1.69534e-06
1.56697e-06
1.43629e-06
1.30713e-06
1.18201e-06
1.06356e-06
9.51304e-07
8.45778e-07
7.4446e-07
6.25621e-07
5.24138e-07
1.30056e-06
1.25706e-06
1.21343e-06
1.16814e-06
1.12294e-06
1.07823e-06
1.03525e-06
9.95523e-07
9.59009e-07
9.25303e-07
8.94092e-07
8.64881e-07
8.37019e-07
8.09799e-07
7.82641e-07
7.54838e-07
7.25717e-07
6.94688e-07
6.61104e-07
6.24371e-07
5.83992e-07
5.39537e-07
4.90903e-07
4.38916e-07
3.85241e-07
3.31839e-07
2.80075e-07
2.31004e-07
1.85525e-07
1.4444e-07
1.08353e-07
7.76151e-08
5.24337e-08
3.27097e-08
1.82807e-08
9.34583e-09
6.11885e-09
9.46115e-09
2.04175e-08
1.07186e-06
1.10986e-06
1.15285e-06
1.19862e-06
1.24675e-06
1.29798e-06
1.35062e-06
1.40367e-06
1.45687e-06
1.5094e-06
1.5605e-06
1.60978e-06
1.65677e-06
1.70079e-06
1.74139e-06
1.77769e-06
1.809e-06
1.83431e-06
1.85259e-06
1.86265e-06
1.86432e-06
1.8558e-06
1.83516e-06
1.80341e-06
1.76009e-06
1.70327e-06
1.63248e-06
1.54919e-06
1.45579e-06
1.35519e-06
1.25055e-06
1.1449e-06
1.04051e-06
9.39519e-07
8.41818e-07
7.47768e-07
6.55648e-07
5.49043e-07
4.53142e-07
1.03552e-06
1.00076e-06
9.65863e-07
9.29751e-07
8.938e-07
8.58266e-07
8.24161e-07
7.92674e-07
7.63779e-07
7.37128e-07
7.1251e-07
6.89576e-07
6.67767e-07
6.46522e-07
6.25429e-07
6.03928e-07
5.81504e-07
5.57687e-07
5.31923e-07
5.037e-07
4.72596e-07
4.38186e-07
4.00294e-07
3.59484e-07
3.1701e-07
2.74355e-07
2.32652e-07
1.92725e-07
1.55352e-07
1.21235e-07
9.09563e-08
6.49065e-08
4.33648e-08
2.63708e-08
1.38992e-08
6.16158e-09
3.43267e-09
6.37915e-09
1.53694e-08
8.54763e-07
8.85316e-07
9.19946e-07
9.56864e-07
9.958e-07
1.03736e-06
1.08013e-06
1.1234e-06
1.16698e-06
1.21016e-06
1.25239e-06
1.29341e-06
1.33284e-06
1.37021e-06
1.40518e-06
1.43717e-06
1.46556e-06
1.48956e-06
1.50841e-06
1.52116e-06
1.52758e-06
1.52627e-06
1.51563e-06
1.49607e-06
1.46722e-06
1.42756e-06
1.37648e-06
1.31469e-06
1.24374e-06
1.1656e-06
1.08253e-06
9.96854e-07
9.10361e-07
8.24893e-07
7.40504e-07
6.57514e-07
5.74591e-07
4.79684e-07
3.91342e-07
8.25671e-07
7.9786e-07
7.69943e-07
7.41128e-07
7.12477e-07
6.84188e-07
6.57074e-07
6.32047e-07
6.09096e-07
5.87945e-07
5.68468e-07
5.50319e-07
5.33133e-07
5.16504e-07
5.00046e-07
4.83335e-07
4.65972e-07
4.47588e-07
4.27742e-07
4.06002e-07
3.81996e-07
3.55353e-07
3.25823e-07
2.93783e-07
2.6021e-07
2.26217e-07
1.92703e-07
1.60318e-07
1.2971e-07
1.01491e-07
7.61918e-08
5.42174e-08
3.58771e-08
2.13094e-08
1.0586e-08
3.92988e-09
1.64201e-09
4.23793e-09
1.16664e-08
6.82492e-07
7.07079e-07
7.34951e-07
7.6474e-07
7.96227e-07
8.29904e-07
8.64641e-07
8.99881e-07
9.35503e-07
9.70907e-07
1.00572e-06
1.03972e-06
1.07263e-06
1.10414e-06
1.13397e-06
1.1617e-06
1.18685e-06
1.20884e-06
1.22712e-06
1.2409e-06
1.24985e-06
1.25301e-06
1.24897e-06
1.23786e-06
1.21938e-06
1.19232e-06
1.15598e-06
1.11069e-06
1.05732e-06
9.97148e-07
9.31722e-07
8.62759e-07
7.9168e-07
7.19848e-07
6.47531e-07
5.7487e-07
5.01129e-07
4.1743e-07
3.37534e-07
6.59187e-07
6.36941e-07
6.1458e-07
5.91567e-07
5.68714e-07
5.46165e-07
5.24567e-07
5.04639e-07
4.86362e-07
4.69519e-07
4.54023e-07
4.39635e-07
4.26039e-07
4.12923e-07
4.00006e-07
3.86959e-07
3.73469e-07
3.59229e-07
3.4388e-07
3.27098e-07
3.0854e-07
2.87866e-07
2.64842e-07
2.39706e-07
2.13176e-07
1.86136e-07
1.59256e-07
1.33062e-07
1.08078e-07
8.48287e-08
6.37806e-08
4.5322e-08
2.97818e-08
1.73567e-08
8.18245e-09
2.48932e-09
5.79829e-10
2.84762e-09
9.00316e-09
5.45552e-07
5.65336e-07
5.87765e-07
6.11807e-07
6.37262e-07
6.64533e-07
6.92732e-07
7.21412e-07
7.50473e-07
7.79468e-07
8.0808e-07
8.36164e-07
8.63511e-07
8.89896e-07
9.15112e-07
9.38879e-07
9.60823e-07
9.80534e-07
9.97528e-07
1.01118e-06
1.02119e-06
1.02688e-06
1.0271e-06
1.02169e-06
1.01048e-06
9.9248e-07