/*--------------------------------*- C++ -*----------------------------------*\
| =========                 |                                                 |
| \\      /  F ield         | OpenFOAM: The Open Source CFD Toolbox           |
|  \\    /   O peration     | Version:  2312                                  |
|   \\  /    A nd           | Website:  www.openfoam.com                      |
|    \\/     M anipulation  |                                                 |
\*---------------------------------------------------------------------------*/
FoamFile
{
    version     2.0;
    format      ascii;
    arch        "LSB;label=32;scalar=64";
    class       volVectorField;
    location    "500";
    object      U;
}
// * * * * * * * * * * * * * * * * * * * * * * * * * * * * * * * * * * * * * //

dimensions      [0 1 -1 0 0 0 0];

internalField   nonuniform List<vector> 
10720
(
(0.227307 27.647 1.44215e-17)
(1.96454 29.9432 -1.32689e-17)
(4.13735 32.1617 0)
(6.63499 33.8946 -4.01054e-16)
(9.39108 35.2247 4.47781e-16)
(12.3373 36.1102 3.26556e-16)
(15.3188 36.4524 4.5338e-16)
(18.2397 36.2859 0)
(21.0151 35.6757 0)
(23.5619 34.6566 0)
(25.8434 33.3238 1.213e-16)
(27.8127 31.7263 0)
(29.4229 29.8609 2.44535e-15)
(30.6576 27.7678 0)
(31.4739 25.4622 0)
(31.8438 22.9751 0)
(31.6969 20.3078 -4.42959e-15)
(30.9558 17.4968 -6.86063e-15)
(29.4862 14.5542 6.41628e-15)
(27.1602 11.5446 0)
(23.8373 8.53233 6.38088e-15)
(19.5673 5.67765 -1.47611e-14)
(14.8908 3.22863 9.1783e-15)
(11.4441 1.44111 -3.36349e-16)
(10.0628 0.261674 0)
(10.7003 -0.358102 4.65519e-15)
(12.1189 -0.598904 6.00275e-17)
(13.6255 -0.719418 -1.40921e-15)
(14.8686 -0.871217 -4.56099e-15)
(15.6919 -1.08664 -1.50848e-14)
(16.1255 -1.3469 6.28532e-15)
(16.2634 -1.62031 1.08487e-14)
(16.0625 -1.86607 8.83848e-15)
(15.5557 -2.06068 2.89347e-14)
(14.7264 -2.17973 -1.12529e-14)
(13.5777 -2.20864 -7.77227e-17)
(11.7317 -2.06549 2.24759e-17)
(9.73211 -1.81444 2.81629e-15)
(3.62825 -1.08803 1.25467e-14)
(-1.1427 25.1965 -7.37194e-19)
(-2.24857 22.436 -1.33402e-17)
(-3.01404 19.3293 5.82493e-17)
(-3.31647 15.7331 -1.6916e-16)
(-2.99629 12.0183 -5.68386e-16)
(-2.02376 8.32072 1.01479e-15)
(-0.486674 4.95178 5.32843e-15)
(1.3644 2.18881 3.17757e-15)
(3.32267 -0.139526 0)
(5.55302 -2.1599 0)
(7.84878 -3.66177 2.11884e-15)
(9.96512 -4.62794 7.70592e-16)
(11.8356 -5.18647 -1.28228e-15)
(13.4723 -5.46194 1.05424e-15)
(14.9 -5.55118 1.73897e-15)
(16.1499 -5.51722 1.12062e-15)
(17.2526 -5.40769 1.42695e-15)
(18.2406 -5.2515 9.4669e-16)
(19.145 -5.06815 0)
(19.9876 -4.8604 0)
(20.7866 -4.62979 -1.29974e-15)
(21.5528 -4.36685 -5.90621e-17)
(22.2875 -4.05759 8.66236e-16)
(22.9598 -3.67699 -5.89905e-16)
(23.5021 -3.22513 2.72648e-17)
(23.897 -2.74548 0)
(24.175 -2.27773 7.73595e-17)
(24.3721 -1.77844 0)
(24.5037 -1.18113 0)
(24.5699 -0.513059 -9.6847e-18)
(24.5503 0.159842 0)
(24.4305 0.789602 1.17443e-16)
(24.2114 1.3536 1.62015e-16)
(23.9018 1.84542 4.60233e-16)
(23.5017 2.26734 1.22109e-16)
(23.0077 2.62726 -1.0907e-18)
(22.3174 2.92666 0)
(21.3672 3.1342 4.0923e-15)
(18.7647 3.31174 7.81346e-15)
(7.15396 23.9923 -8.2551e-18)
(9.04435 25.7193 -2.39901e-19)
(11.3477 27.2835 0)
(14.0035 28.58 0)
(16.8651 29.5493 -1.31552e-16)
(19.9374 30.1312 -3.13388e-16)
(23.108 30.2789 0)
(26.2441 30.014 0)
(29.292 29.3461 6.71036e-16)
(32.1687 28.327 0)
(34.8181 27.0096 2.48061e-15)
(37.2334 25.4924 0)
(39.4232 23.8655 8.82622e-16)
(41.3993 22.1613 -8.66711e-16)
(43.1487 20.4109 1.73707e-15)
(44.6308 18.6527 -3.4507e-15)
(45.8266 16.9103 3.65762e-15)
(46.6992 15.2127 3.32371e-15)
(47.1876 13.5671 3.22842e-15)
(47.1791 11.9782 1.96078e-16)
(46.4799 10.3966 -3.35548e-15)
(44.8609 8.72368 3.29723e-15)
(42.1813 6.82177 -1.98413e-16)
(38.6442 4.75814 0)
(35.1103 2.86659 0)
(31.9559 1.34594 0)
(29.1545 0.240138 1.94876e-16)
(26.7729 -0.550389 -4.26487e-17)
(24.9184 -1.15067 2.61664e-15)
(23.5667 -1.62234 2.67203e-17)
(22.5402 -1.99184 -1.98941e-17)
(21.6147 -2.27811 -7.64995e-17)
(20.6913 -2.50253 5.28761e-15)
(19.6856 -2.67128 -8.45479e-15)
(18.5073 -2.7695 -4.35847e-17)
(17.1191 -2.7795 -8.9422e-15)
(15.1493 -2.63258 0)
(13.0642 -2.36446 -6.75924e-16)
(7.02298 -1.47011 5.60179e-15)
(5.55902 22.1531 1.0883e-17)
(4.17397 20.1084 -4.9682e-17)
(2.96018 17.7146 -6.03026e-16)
(2.03959 14.9944 7.47455e-16)
(1.5918 12.0367 0)
(1.70558 8.98111 -1.63518e-15)
(2.40264 6.03981 -1.23169e-15)
(3.58769 3.43889 -9.54524e-15)
(5.08027 1.14186 2.75916e-15)
(6.84372 -0.758219 -1.99585e-15)
(8.73745 -2.1244 2.45878e-15)
(10.5866 -3.01233 -6.89887e-16)
(12.3097 -3.54995 0)
(13.8829 -3.83702 -4.51392e-16)
(15.3008 -3.95452 5.98234e-17)
(16.5749 -3.95473 -9.96381e-16)
(17.7215 -3.88206 0)
(18.7646 -3.7616 0)
(19.7282 -3.6112 -1.02446e-16)
(20.6353 -3.42809 9.8731e-17)
(21.5012 -3.20995 -1.15949e-15)
(22.3382 -2.93941 -1.24679e-16)
(23.1483 -2.59509 5.46884e-17)
(23.9088 -2.13663 5.93199e-16)
(24.5677 -1.57144 -4.03851e-16)
(25.099 -0.963324 -2.86723e-16)
(25.5135 -0.336454 0)
(25.8055 0.27377 0)
(25.967 0.821306 0)
(26.0005 1.28865 9.6499e-18)
(25.935 1.68399 0)
(25.7971 2.03013 0)
(25.5971 2.3467 -2.38471e-16)
(25.3362 2.64221 -1.32125e-16)
(25.0049 2.92011 -1.00151e-16)
(24.6045 3.18328 4.74268e-16)
(24.0359 3.42892 -1.81108e-15)
(23.4731 3.6481 -3.20834e-15)
(21.4976 3.71657 -5.38327e-15)
(8.30381 22.0997 -1.75025e-18)
(9.64535 23.6254 9.23679e-18)
(11.2778 25.1114 -8.39604e-18)
(13.1539 26.4854 -3.8179e-17)
(15.2214 27.6287 -1.72402e-16)
(17.4794 28.518 6.02755e-16)
(19.8536 29.1144 -4.22633e-16)
(22.2694 29.3803 -4.98583e-16)
(24.6698 29.3158 8.78036e-18)
(26.9969 28.9329 -6.56953e-16)
(29.1975 28.2514 6.14142e-16)
(31.2377 27.2963 -1.59939e-15)
(33.0901 26.0977 -7.60996e-16)
(34.7378 24.6883 0)
(36.179 23.1023 -1.84691e-15)
(37.4729 21.3507 3.69234e-15)
(38.6497 19.4639 0)
(39.7296 17.498 -6.94236e-15)
(40.773 15.5026 -3.4326e-15)
(41.8252 13.5514 3.95365e-16)
(42.9476 11.6856 -3.8038e-16)
(44.0595 9.89345 -1.72951e-16)
(44.8706 8.03484 -2.44687e-15)
(44.9368 6.02598 1.27684e-15)
(44.1662 4.02932 0)
(42.8122 2.28443 1.22309e-15)
(41.0988 0.902747 -1.4612e-16)
(39.0757 -0.182911 0)
(36.6995 -1.07312 1.92488e-15)
(34.0106 -1.80064 3.55783e-15)
(31.2193 -2.36354 -6.16966e-15)
(28.6126 -2.76903 -5.15602e-15)
(26.3426 -3.03935 -1.02123e-16)
(24.3393 -3.19777 -6.74893e-15)
(22.412 -3.25678 -5.1592e-15)
(20.4315 -3.21345 6.98939e-15)
(18.0249 -3.02198 0)
(15.5368 -2.65276 -4.56175e-16)
(9.73852 -1.88339 -7.75e-15)
(7.20963 20.4926 -1.62877e-17)
(6.25004 18.7378 -6.06041e-17)
(5.45267 16.6726 2.42027e-16)
(4.81237 14.3623 0)
(4.48419 11.8814 4.63119e-16)
(4.5138 9.29941 0)
(4.92874 6.75361 3.51327e-15)
(5.69822 4.40206 2.07056e-15)
(6.78418 2.29671 1.79748e-15)
(8.13892 0.507258 0)
(9.6365 -0.905576 -2.51751e-15)
(11.1564 -1.963 -5.30854e-16)
(12.627 -2.72628 2.38441e-15)
(14.0131 -3.25345 0)
(15.2976 -3.59508 -1.09291e-15)
(16.4787 -3.79449 -3.28723e-16)
(17.5627 -3.88965 1.34853e-15)
(18.5631 -3.90676 6.96341e-16)
(19.4969 -3.86401 1.89879e-16)
(20.3814 -3.76665 -1.03622e-16)
(21.2291 -3.6168 1.06209e-15)
(22.0489 -3.40624 0)
(22.8409 -3.12155 0)
(23.5858 -2.74229 2.65124e-17)
(24.2405 -2.28355 0)
(24.7806 -1.79447 5.97771e-16)
(25.2165 -1.29722 -7.60865e-18)
(25.5617 -0.796782 -3.15636e-17)
(25.8216 -0.289634 0)
(25.9965 0.226062 -1.00556e-18)
(26.0885 0.75003 -8.86536e-18)
(26.0991 1.27189 0)
(26.028 1.7735 1.06111e-16)
(25.8751 2.23925 0)
(25.6309 2.66169 0)
(25.2955 3.0392 4.30958e-17)
(24.7698 3.37351 -6.0873e-17)
(24.1693 3.6261 3.36021e-15)
(22.3696 3.72739 1.07646e-14)
(10.905 20.2244 -1.3058e-17)
(12.1614 21.5194 -1.07171e-17)
(13.6681 22.7806 -1.74987e-19)
(15.4018 23.9338 -6.17173e-18)
(17.3162 24.8886 0)
(19.4176 25.6263 0)
(21.65 26.1028 -7.0142e-16)
(23.9531 26.2832 8.46887e-16)
(26.2804 26.1596 0)
(28.5767 25.7336 -1.03587e-15)
(30.791 25.0185 -1.32204e-15)
(32.8839 24.0371 -1.24816e-15)
(34.8196 22.8239 1.49517e-15)
(36.5717 21.416 1.41122e-15)
(38.1296 19.8462 0)
(39.4538 18.1664 2.23657e-15)
(40.4986 16.4346 7.65928e-16)
(41.2603 14.6875 6.1787e-15)
(41.7488 12.9621 3.73102e-16)
(42.0124 11.2931 -3.66955e-16)
(42.1494 9.70732 3.10174e-15)
(42.3134 8.19894 -5.04298e-16)
(42.6087 6.6842 2.7803e-15)
(42.8885 5.07478 1.17611e-15)
(42.8482 3.43663 -7.25681e-17)
(42.3984 1.95677 -1.09524e-15)
(41.6996 0.742465 7.97099e-18)
(40.9063 -0.254061 -8.05255e-18)
(40.0012 -1.12336 -1.77798e-15)
(38.8214 -1.89618 -4.64228e-17)
(37.1784 -2.55658 2.89726e-15)
(34.9691 -3.0771 -4.81782e-15)
(32.2961 -3.43977 -3.77292e-15)
(29.457 -3.64616 -3.07556e-18)
(26.6831 -3.70882 4.56039e-15)
(24.0052 -3.63039 0)
(21.0745 -3.39196 3.24106e-15)
(18.0879 -2.90982 3.70819e-16)
(12.3189 -2.20184 3.10841e-15)
(9.84986 18.8697 -2.98049e-17)
(8.90317 17.4008 8.13683e-17)
(8.07697 15.6681 3.52412e-16)
(7.38579 13.711 0)
(6.96046 11.5991 -4.0887e-16)
(6.83596 9.38072 0)
(7.03835 7.15956 -2.71556e-15)
(7.54195 5.05825 -1.18507e-16)
(8.32464 3.13444 1.28661e-15)
(9.35355 1.45263 1.12286e-15)
(10.5377 0.0660415 3.79251e-17)
(11.7926 -1.01956 1.86395e-15)
(13.0582 -1.83597 -1.19693e-15)
(14.2937 -2.42408 3.79251e-16)
(15.4739 -2.82325 1.28651e-15)
(16.5865 -3.07257 1.41041e-15)
(17.6289 -3.20613 -1.25872e-15)
(18.6051 -3.25102 7.61244e-18)
(19.525 -3.22691 0)
(20.3999 -3.14324 1.29767e-15)
(21.2393 -3.00324 6.30039e-17)
(22.0491 -2.80141 -9.6527e-16)
(22.8287 -2.52653 0)
(23.5615 -2.16106 2.66997e-17)
(24.2117 -1.71068 0)
(24.7554 -1.21289 -2.87398e-16)
(25.1975 -0.69076 0)
(25.549 -0.155344 3.01247e-17)
(25.8149 0.382867 -8.02426e-19)
(25.9979 0.908833 3.9919e-19)
(26.1032 1.40673 8.53895e-18)
(26.1373 1.86089 1.83718e-19)
(26.1041 2.26812 0)
(26.0052 2.63153 3.03871e-17)
(25.831 2.95774 1.09431e-18)
(25.5776 3.25126 -5.74193e-16)
(25.1463 3.52021 4.31488e-15)
(24.6142 3.69602 1.07702e-17)
(22.9849 3.75933 0)
(12.4356 18.8257 -1.81862e-17)
(13.4919 19.975 -3.63526e-18)
(14.7658 21.117 -1.57736e-19)
(16.2229 22.1895 1.26507e-16)
(17.8231 23.1099 -4.75831e-17)
(19.5872 23.8733 -1.84417e-16)
(21.4685 24.4402 3.00693e-16)
(23.4199 24.7753 0)
(25.4109 24.8687 1.19529e-15)
(27.395 24.7135 5.58956e-16)
(29.331 24.3115 0)
(31.1841 23.6743 1.20185e-15)
(32.9202 22.8211 -6.38209e-16)
(34.5125 21.7733 1.78066e-15)
(35.94 20.5547 0)
(37.1823 19.1889 -2.97703e-15)
(38.2516 17.6716 2.79813e-15)
(39.1423 16.0257 -1.65167e-16)
(39.847 14.2843 0)
(40.3587 12.4938 3.00463e-15)
(40.6838 10.6938 -3.0172e-15)
(40.8485 8.91486 -1.563e-16)
(40.8957 7.14916 -2.39233e-15)
(40.818 5.39083 -2.26585e-15)
(40.5227 3.71132 0)
(39.971 2.23107 0)
(39.2741 1.00734 -2.5799e-16)
(38.5777 -0.00828828 -2.85287e-17)
(37.9457 -0.895724 1.75423e-15)
(37.3591 -1.69008 -4.59991e-17)
(36.7508 -2.3945 4.56976e-17)
(35.9826 -3.00511 4.70041e-15)
(34.8194 -3.50404 0)
(33.0169 -3.85308 1.21025e-14)
(30.5259 -4.01653 -3.95266e-17)
(27.5893 -3.9764 0)
(24.2475 -3.73117 -1.64753e-17)
(20.7884 -3.16232 0)
(14.9249 -2.46989 -2.69088e-15)
(11.5428 17.6298 2.95409e-17)
(10.7393 16.3464 -1.86014e-16)
(10.0176 14.8316 -4.40323e-17)
(9.38608 13.124 8.20644e-16)
(8.96069 11.2879 -1.29553e-15)
(8.76623 9.35141 -1.69286e-15)
(8.83376 7.39033 2.05661e-15)
(9.15434 5.50432 -2.18997e-15)
(9.71852 3.75576 -9.71635e-16)
(10.5022 2.19692 -8.55899e-16)
(11.4407 0.868538 1.64204e-15)
(12.471 -0.216326 -1.56776e-15)
(13.5452 -1.07518 -6.83552e-16)
(14.6253 -1.73502 6.64658e-16)
(15.6841 -2.22165 -1.43719e-15)
(16.7052 -2.56474 2.64038e-16)
(17.6806 -2.79059 0)
(18.6082 -2.92145 -9.94434e-16)
(19.4922 -2.974 3.51317e-16)
(20.3393 -2.95803 -1.3609e-15)
(21.1556 -2.87698 0)
(21.9449 -2.72764 8.39764e-16)
(22.7052 -2.50189 6.57714e-16)
(23.4217 -2.18892 -4.9219e-16)
(24.0639 -1.79482 0)
(24.6086 -1.35144 -3.15885e-16)
(25.0564 -0.88403 0)
(25.4161 -0.405349 0)
(25.6916 0.0752283 0)
(25.8851 0.547582 2.40859e-17)
(26.0001 1.0035 0)
(26.0419 1.44299 0)
(26.0147 1.86612 -1.47404e-17)
(25.9218 2.26937 -3.05994e-17)
(25.7576 2.6497 0)
(25.5242 3.00273 -6.73751e-16)
(25.1357 3.32902 8.45213e-17)
(24.6771 3.54902 0)
(23.3014 3.66103 -5.39113e-15)
(13.9267 17.5917 2.23102e-17)
(14.8866 18.6088 -1.58404e-17)
(16.0396 19.6253 0)
(17.3538 20.5825 8.92741e-18)
(18.7905 21.4074 -1.12282e-16)
(20.3794 22.1004 1.73278e-16)
(22.0803 22.6231 4.66067e-17)
(23.8553 22.9437 -7.50206e-16)
(25.6838 23.0488 -9.48899e-17)
(27.5275 22.9272 1.14111e-15)
(29.3511 22.5746 -4.07717e-16)
(31.125 21.9943 9.25264e-16)
(32.8157 21.1968 4.64862e-16)
(34.3952 20.1966 3.34533e-16)
(35.8391 19.0125 0)
(37.1279 17.6657 -6.44633e-16)
(38.2344 16.1964 -1.41285e-15)
(39.1311 14.6553 -5.18318e-15)
(39.8079 13.0823 1.52846e-15)
(40.2722 11.5068 -1.93106e-15)
(40.5417 9.94902 -3.01272e-16)
(40.6417 8.40648 0)
(40.5816 6.84784 2.15116e-15)
(40.3342 5.25421 1.39375e-16)
(39.8531 3.68848 -6.48721e-17)
(39.14 2.27006 -9.25893e-16)
(38.2854 1.07382 2.1496e-16)
(37.4042 0.0775118 4.48574e-16)
(36.5564 -0.78433 -1.67461e-15)
(35.7526 -1.54814 -8.90401e-17)
(35.0006 -2.22199 2.83823e-15)
(34.3244 -2.81037 4.55684e-15)
(33.7077 -3.31764 0)
(33.0172 -3.73744 -1.92324e-17)
(31.9165 -4.03422 -4.57919e-15)
(30.0275 -4.13077 0)
(27.0862 -3.96963 -5.90673e-15)
(23.5157 -3.38271 0)
(17.5856 -2.71567 2.41954e-15)
(13.107 16.5371 -2.94457e-17)
(12.3658 15.4123 7.54555e-17)
(11.6863 14.081 -1.87396e-16)
(11.0782 12.5764 0)
(10.644 10.9597 5.50526e-16)
(10.3998 9.24906 2.76883e-15)
(10.3732 7.50028 0)
(10.5651 5.80009 -1.57074e-15)
(10.9701 4.21072 -1.49451e-15)
(11.5678 2.77122 1.49305e-15)
(12.3122 1.51455 -5.94279e-17)
(13.1562 0.457822 6.46824e-16)
(14.0634 -0.407409 3.37049e-17)
(15.0016 -1.09774 1.69861e-15)
(15.945 -1.62895 1.51946e-15)
(16.8762 -2.02232 -1.42436e-15)
(17.7842 -2.2978 1.99988e-16)
(18.6627 -2.47364 -3.71991e-16)
(19.5108 -2.56454 1.72294e-16)
(20.331 -2.58038 9.99002e-16)
(21.1259 -2.52571 1.29331e-16)
(21.8966 -2.39966 -9.28207e-17)
(22.6397 -2.19656 -5.5825e-16)
(23.3417 -1.90896 0)
(23.9761 -1.54127 2.25867e-17)
(24.5208 -1.1188 5.91196e-16)
(24.973 -0.664953 -2.95925e-18)
(25.3388 -0.192138 2.9629e-18)
(25.6213 0.290654 0)
(25.8222 0.772908 -2.27531e-17)
(25.9447 1.24529 0)
(25.9938 1.69806 0)
(25.9732 2.12131 1.30672e-17)
(25.8861 2.509 9.79203e-17)
(25.7266 2.85954 0)
(25.4952 3.16967 6.39831e-16)
(25.1127 3.44509 -4.49617e-15)
(24.6513 3.59202 2.18575e-17)
(23.4323 3.62879 5.15428e-15)
(15.126 16.5487 4.05047e-19)
(15.9878 17.462 -1.50603e-17)
(17.0228 18.3823 5.88188e-18)
(18.1971 19.2552 -5.71055e-18)
(19.4723 20.0152 7.69279e-17)
(20.8834 20.6687 0)
(22.3938 21.1825 -3.33195e-16)
(23.9714 21.5275 6.57063e-18)
(25.6037 21.6923 -3.41259e-16)
(27.2582 21.6653 -6.91597e-16)
(28.9064 21.4394 0)
(30.5241 21.0143 -1.67949e-15)
(32.081 20.3949 -1.44632e-15)
(33.5502 19.5906 -3.52729e-15)
(34.908 18.6157 0)
(36.1302 17.4894 -2.19368e-15)
(37.1971 16.2325 -2.30312e-15)
(38.1009 14.8546 2.44964e-15)
(38.8327 13.3785 -2.40465e-15)
(39.3887 11.8369 2.22924e-15)
(39.7731 10.2616 2.75181e-16)
(39.9941 8.67743 -2.36606e-15)
(40.0491 7.08561 0)
(39.9013 5.48697 -2.10199e-15)
(39.502 3.93393 1.26339e-16)
(38.853 2.52217 9.64775e-16)
(38.0326 1.31662 0)
(37.1405 0.303396 -3.29351e-17)
(36.2276 -0.572869 7.119e-17)
(35.2964 -1.34522 2.74318e-15)
(34.3475 -2.0202 -2.54345e-15)
(33.4072 -2.60129 -4.40586e-15)
(32.518 -3.09383 3.71488e-15)
(31.7344 -3.50193 -6.43241e-17)
(31.0433 -3.82245 4.70684e-15)
(30.2509 -4.01992 6.08582e-15)
(28.6131 -4.00917 3.08164e-15)
(25.8273 -3.51151 -8.02463e-18)
(20.199 -2.9269 -2.98664e-18)
(14.3842 15.6039 1.18827e-17)
(13.7103 14.6026 1.45426e-16)
(13.0802 13.4153 1.95964e-16)
(12.5035 12.0724 -3.73363e-16)
(12.0724 10.6324 -1.4847e-15)
(11.7992 9.10499 4.94202e-16)
(11.7087 7.53178 1.25755e-15)
(11.8083 5.99136 3.17814e-15)
(12.095 4.54395 1.27371e-15)
(12.5513 3.21761 -1.19111e-15)
(13.1432 2.03938 -3.87595e-17)
(13.8349 1.0266 -5.72613e-16)
(14.5985 0.174564 0)
(15.4083 -0.527172 -2.71175e-17)
(16.2414 -1.08798 -9.303e-16)
(17.0817 -1.52286 4.0565e-16)
(17.9171 -1.8462 -3.9843e-16)
(18.7389 -2.07166 0)
(19.543 -2.21084 6.02775e-16)
(20.3284 -2.27223 -1.05005e-15)
(21.0949 -2.25989 0)
(21.8413 -2.17375 7.68111e-16)
(22.5631 -2.00988 0)
(23.2474 -1.76357 -2.86673e-17)
(23.8712 -1.43908 2.86069e-17)
(24.4131 -1.05727 -2.89598e-16)
(24.8679 -0.640093 -5.3698e-18)
(25.2389 -0.200993 -3.05987e-18)
(25.5288 0.249871 6.74079e-19)
(25.7385 0.7013 -3.68098e-17)
(25.8708 1.14251 -4.33574e-17)
(25.93 1.56551 5.27915e-17)
(25.9195 1.96678 1.20767e-18)
(25.8417 2.34277 3.26125e-17)
(25.6907 2.692 0)
(25.4658 3.01 1.37641e-17)
(25.0933 3.29801 2.10709e-15)
(24.6336 3.46061 -1.27924e-17)
(23.5071 3.50382 4.79371e-15)
(16.1811 15.63 4.4739e-18)
(16.9712 16.4539 2.27735e-17)
(17.9185 17.2878 0)
(18.9894 18.0804 -2.57832e-17)
(20.1454 18.7725 2.54534e-17)
(21.4244 19.3744 0)
(22.7932 19.8551 -1.23009e-16)
(24.2239 20.1887 9.70743e-16)
(25.7097 20.365 -1.35081e-15)
(27.2238 20.3715 4.30778e-16)
(28.7429 20.1993 5.88705e-16)
(30.2478 19.8446 2.13306e-15)
(31.7122 19.3074 1.53029e-15)
(33.112 18.5914 1.82883e-15)
(34.4237 17.7049 4.84588e-16)
(35.6236 16.6607 1.60791e-15)
(36.6917 15.4745 2.21456e-15)
(37.6061 14.1755 2.10144e-15)
(38.3494 12.7986 -1.54161e-15)
(38.9156 11.3728 -4.70964e-15)
(39.3089 9.92147 0)
(39.5394 8.45711 8.67445e-17)
(39.6105 6.97777 1.86702e-15)
(39.4994 5.48361 2.0013e-15)
(39.1651 4.01658 -1.15597e-16)
(38.6005 2.65885 -8.59144e-16)
(37.8632 1.4745 6.17487e-18)
(37.037 0.463109 -4.39886e-16)
(36.1681 -0.417017 4.65615e-17)
(35.2568 -1.19373 -5.09959e-15)
(34.2932 -1.87164 -9.10646e-18)
(33.2799 -2.45124 -6.92129e-17)
(32.2291 -2.9348 -3.56751e-15)
(31.1765 -3.32375 -6.36666e-17)
(30.1754 -3.61545 -4.5255e-15)
(29.3621 -3.79838 -1.23146e-14)
(28.5108 -3.85061 3.18474e-15)
(27.1015 -3.48945 4.02401e-16)
(22.4589 -3.06418 2.1453e-15)
(15.4962 14.7793 -5.27819e-17)
(14.8723 13.8813 -1.96837e-16)
(14.2801 12.8145 -1.42063e-16)
(13.7295 11.6058 -3.62686e-16)
(13.3039 10.3121 8.23942e-16)
(13.0123 8.93629 -5.93983e-17)
(12.8778 7.51064 -3.11121e-15)
(12.9103 6.10862 -1.07951e-15)
(13.1079 4.78661 1.70426e-17)
(13.4558 3.56429 0)
(13.9274 2.46462 -1.00804e-15)
(14.4946 1.50387 9.40746e-16)
(15.1365 0.678677 -9.06521e-16)
(15.8325 -0.0178792 -4.64496e-16)
(16.5639 -0.590788 3.87849e-16)
(17.3167 -1.05034 3.85928e-16)
(18.0793 -1.40596 1.38479e-15)
(18.842 -1.66703 -3.28158e-16)
(19.5989 -1.84203 -5.59021e-16)
(20.3465 -1.93775 0)
(21.0821 -1.95757 -8.50936e-16)
(21.8026 -1.9019 -6.32982e-16)
(22.5022 -1.76802 -1.33139e-17)
(23.1686 -1.55318 -6.83896e-17)
(23.7808 -1.26129 -2.20119e-17)
(24.3185 -0.909136 3.36516e-16)
(24.7744 -0.516717 -6.26661e-18)
(25.1495 -0.0976468 5.01373e-17)
(25.4453 0.337751 8.43813e-18)
(25.6624 0.778519 3.33921e-17)
(25.8026 1.21415 -1.27459e-17)
(25.8697 1.63647 -1.27421e-16)
(25.8665 2.03745 -1.21871e-16)
(25.7955 2.41089 -1.17377e-16)
(25.6507 2.75341 -6.97766e-18)
(25.4316 3.05764 4.23706e-18)
(25.0689 3.32356 -2.15537e-15)
(24.6199 3.44652 -3.21455e-15)
(23.5732 3.43478 -4.41462e-15)
(17.092 14.8184 -1.37278e-17)
(17.8198 15.5665 -8.52303e-18)
(18.6912 16.3266 -2.12742e-17)
(19.6724 17.0507 6.8314e-18)
(20.7254 17.6846 4.93154e-17)
(21.8889 18.2414 -1.39674e-16)
(23.1323 18.6935 4.6216e-16)
(24.4306 19.0174 0)
(25.781 19.2055 4.10845e-16)
(27.1605 19.2458 1.23284e-17)
(28.5503 19.1294 -5.03929e-16)
(29.9356 18.8512 -1.96196e-15)
(31.2938 18.4088 -7.98327e-16)
(32.6034 17.8031 0)
(33.8429 17.0389 0)
(34.9894 16.1254 0)
(36.0213 15.0775 0)
(36.9204 13.9115 -2.04595e-15)
(37.6728 12.6452 2.01574e-15)
(38.2687 11.3017 1.97248e-15)
(38.7051 9.90584 -1.59108e-15)
(38.9826 8.47908 1.40185e-15)
(39.0986 7.03323 -1.46296e-15)
(39.035 5.5799 -1.08015e-16)
(38.7616 4.15657 -5.04883e-17)
(38.2721 2.82946 8.6491e-16)
(37.613 1.65484 1.86972e-16)
(36.8564 0.639266 0)
(36.0476 -0.248956 0)
(35.1915 -1.03425 4.17487e-17)
(34.2796 -1.72121 0)
(33.308 -2.30931 3.76907e-15)
(32.2725 -2.79892 -3.34407e-15)
(31.1718 -3.18747 -5.37025e-15)
(30.0012 -3.46793 8.43624e-15)
(28.8601 -3.62188 5.96402e-15)
(27.8177 -3.641 -3.17815e-15)
(27.2403 -3.33316 -8.54833e-16)
(23.9939 -3.08617 -2.16233e-15)
(16.4572 14.0468 0)
(15.8772 13.2353 5.49779e-17)
(15.3195 12.2692 2.69612e-16)
(14.7938 11.1733 -1.1664e-15)
(14.377 10.0023 1.02949e-15)
(14.0746 8.75405 -8.27148e-16)
(13.9097 7.45412 9.66896e-18)
(13.8931 6.17256 8.16499e-16)
(14.0229 4.96109 8.63305e-16)
(14.2869 3.83383 0)
(14.6633 2.81014 4.14777e-16)
(15.1292 1.90493 -1.26809e-15)
(15.6685 1.11491 2.00931e-15)
(16.2653 0.434894 3.65823e-16)
(16.9044 -0.137943 -7.4468e-16)
(17.5746 -0.610468 -6.93351e-16)
(18.2654 -0.988606 -6.37186e-16)
(18.9676 -1.27827 0)
(19.6744 -1.48502 0)
(20.3805 -1.61358 0)
(21.0817 -1.66634 7.93701e-16)
(21.7731 -1.64352 0)
(22.4481 -1.54307 -5.11617e-16)
(23.0946 -1.36344 -6.55096e-17)
(23.6931 -1.10819 -3.91204e-16)
(24.2245 -0.791129 -2.95569e-16)
(24.6796 -0.430248 0)
(25.0576 -0.0392453 -4.13302e-17)
(25.3587 0.371187 -8.888e-18)
(25.5829 0.789912 1.64821e-18)
(25.7315 1.20604 1.13904e-16)
(25.8074 1.61032 -2.1691e-17)
(25.8132 1.99637 1.17063e-16)
(25.7508 2.35839 -1.72614e-16)
(25.6142 2.69278 0)
(25.4025 2.99155 -1.349e-17)
(25.0509 3.25235 -5.14674e-17)
(24.6141 3.37064 3.04463e-15)
(23.6447 3.34525 -2.5919e-17)
(17.8937 14.0911 1.59756e-17)
(18.5696 14.7732 0)
(19.3777 15.468 6.02604e-17)
(20.2844 16.1307 -2.52651e-17)
(21.2522 16.7108 -3.06637e-17)
(22.32 17.2236 1.30674e-16)
(23.459 17.6437 -2.03224e-16)
(24.6465 17.9507 -2.47302e-16)
(25.8825 18.1381 0)
(27.1472 18.1949 -4.34272e-16)
(28.4256 18.1123 -4.66453e-16)
(29.7064 17.8847 4.63361e-16)
(30.9705 17.5077 1.73555e-15)
(32.1997 16.9792 6.97742e-16)
(33.3748 16.3008 -2.11811e-15)
(34.474 15.478 -1.53249e-15)
(35.4767 14.5204 1.21275e-15)
(36.3642 13.4417 8.96929e-16)
(37.1183 12.2637 -4.40598e-16)
(37.7258 11.0099 4.4138e-16)
(38.1806 9.70193 1.11905e-15)
(38.4808 8.3576 2.08392e-16)
(38.6224 6.98871 -1.99585e-16)
(38.5908 5.60844 -1.33943e-15)
(38.3629 4.2494 0)
(37.9326 2.96731 -7.24466e-16)
(37.3359 1.81425 -3.48755e-16)
(36.6345 0.803878 -3.21979e-16)
(35.8721 -0.0856468 -1.19205e-15)
(35.0587 -0.874663 4.4706e-15)
(34.1907 -1.56731 1.84333e-15)
(33.267 -2.16264 5.88331e-18)
(32.2841 -2.66026 4.11496e-17)
(31.2346 -3.05636 0)
(30.0871 -3.34104 -3.94588e-15)
(28.8609 -3.48974 0)
(27.4791 -3.48138 0)
(26.8403 -3.13434 4.40892e-16)
(24.7091 -2.99197 4.38273e-18)
(17.3011 13.3878 -5.38852e-17)
(16.7584 12.6503 1.82855e-16)
(16.2305 11.7706 1.22633e-17)
(15.7277 10.7712 2.58853e-16)
(15.3212 9.70482 -9.34751e-16)
(15.0135 8.56532 6.88086e-16)
(14.8273 7.37397 3.53611e-17)
(14.7743 6.19796 -6.76295e-16)
(14.8523 5.08418 -6.63334e-16)
(15.0508 4.04296 -7.07255e-16)
(15.3512 3.09108 -1.40444e-15)
(15.7346 2.2419 0)
(16.1881 1.49156 -7.2216e-16)
(16.6991 0.835518 -2.55805e-17)
(17.2558 0.272294 0)
(17.8494 -0.20312 -6.0906e-16)
(18.4714 -0.593965 -2.90542e-16)
(19.1133 -0.903547 -2.73751e-16)
(19.7686 -1.13496 9.45284e-16)
(20.4311 -1.29079 8.44888e-16)
(21.0954 -1.37204 -8.76434e-17)
(21.7556 -1.3785 6.55301e-16)
(22.4043 -1.30838 1.29529e-16)
(23.0296 -1.16066 -6.26135e-17)
(23.6131 -0.938586 3.46202e-16)
(24.1363 -0.653457 2.11908e-17)
(24.5889 -0.321104 0)
(24.9684 0.0451317 0)
(25.2737 0.434413 -1.74416e-18)
(25.5041 0.835716 4.24239e-18)
(25.6601 1.23805 -1.33381e-16)
(25.7441 1.63213 -2.10696e-17)
(25.758 2.01012 1.88172e-16)
(25.7034 2.36483 1.63301e-16)
(25.5744 2.69147 9.16507e-18)
(25.3701 2.98012 4.36183e-18)
(25.0304 3.22632 3.99216e-15)
(24.6075 3.32284 -2.90225e-15)
(23.7158 3.26759 2.4066e-17)
(18.6019 13.4343 6.12942e-18)
(19.2327 14.0588 0)
(19.986 14.6961 -3.57256e-17)
(20.8283 15.3041 0)
(21.7225 15.8362 -7.25154e-17)
(22.7075 16.3086 7.01875e-17)
(23.7557 16.6983 1.5369e-16)
(24.8464 16.9873 2.32622e-16)
(25.9812 17.1705 0)
(27.1429 17.238 -2.86699e-16)
(28.3194 17.1822 4.768e-16)
(29.5024 16.9968 -9.79659e-16)
(30.6758 16.677 -5.49043e-16)
(31.8242 16.2193 -5.5983e-16)
(32.9306 15.6231 1.3464e-15)
(33.9754 14.891 1.46043e-15)
(34.939 14.0298 -1.57051e-15)
(35.8025 13.0509 -1.57146e-15)
(36.5489 11.9683 0)
(37.1638 10.8001 4.05438e-16)
(37.6374 9.56605 -7.84825e-16)
(37.9637 8.28546 1.91809e-16)
(38.1358 6.97498 2.59259e-18)
(38.1405 5.65228 3.15908e-15)
(37.9592 4.34718 -1.75028e-16)
(37.5862 3.10563 1.09615e-16)
(37.0493 1.97387 3.21116e-16)
(36.4002 0.969773 3.40378e-16)
(35.6795 0.0798039 1.022e-15)
(34.9007 -0.712071 -2.04974e-15)
(34.0644 -1.40921 -1.68311e-15)
(33.1725 -2.01016 -6.60004e-15)
(32.2256 -2.51404 5.67236e-15)
(31.2218 -2.91686 -8.03274e-17)
(30.1334 -3.20866 3.65864e-15)
(28.9713 -3.36172 -1.1173e-16)
(27.5273 -3.35901 6.11217e-17)
(26.5194 -2.96203 4.15714e-18)
(24.8893 -2.82149 -1.90306e-15)
(18.0462 12.7907 2.65103e-17)
(17.5363 12.1169 -9.3989e-17)
(17.0354 11.3121 1.85018e-16)
(16.5537 10.3962 0)
(16.1583 9.42022 5.43491e-16)
(15.8494 8.37458 0)
(15.6486 7.27825 0)
(15.5686 6.19517 0)
(15.6067 5.16811 1.22616e-15)
(15.7536 4.20469 -6.05744e-16)
(15.9933 3.31977 6.84983e-16)
(16.3093 2.52535 0)
(16.6909 1.81682 0)
(17.1283 1.18953 -6.20151e-16)
(17.6121 0.642602 0)
(18.1359 0.172186 5.64304e-16)
(18.6929 -0.223623 1.29667e-17)
(19.2762 -0.546054 0)
(19.8797 -0.796134 -6.71876e-16)
(20.4972 -0.974722 -9.95663e-16)
(21.1227 -1.08157 -6.934e-16)
(21.7497 -1.11569 -6.0331e-16)
(22.3703 -1.07505 1.0338e-15)
(22.9727 -0.958795 0)
(23.5395 -0.76975 3.46566e-16)
(24.0526 -0.517075 3.20166e-16)
(24.5011 -0.21463 1.19443e-16)
(24.8805 0.124798 0)
(25.189 0.490323 -8.82472e-18)
(25.4249 0.870956 -5.25931e-17)
(25.5881 1.25567 1.45915e-16)
(25.6801 1.63465 -2.01632e-17)
(25.7024 2.00006 -1.70108e-16)
(25.6561 2.34447 2.03563e-16)
(25.5354 2.66244 -2.39748e-18)
(25.339 2.9429 9.16506e-18)
(25.012 3.17916 -3.87086e-15)
(24.6034 3.26444 2.68736e-15)
(23.7858 3.19127 6.78685e-15)
(19.2324 12.8367 2.85277e-18)
(19.8238 13.4103 -1.79588e-17)
(20.5292 13.9963 0)
(21.3156 14.555 -1.51406e-17)
(22.1463 15.0434 0)
(23.0596 15.4781 0)
(24.0292 15.8384 1.95705e-17)
(25.0357 16.108 2.01882e-16)
(26.0821 16.2829 4.68095e-16)
(27.1529 16.3548 1.19978e-15)
(28.2385 16.3167 6.80733e-16)
(29.3331 16.1626 7.87744e-16)
(30.4229 15.8874 0)
(31.4954 15.4863 1.54092e-15)
(32.536 14.9572 -5.46858e-16)
(33.5269 14.3004 0)
(34.4502 13.52 1.30847e-15)
(35.2876 12.6239 1.49896e-15)
(36.0219 11.6238 0)
(36.6371 10.5365 1.43737e-15)
(37.1208 9.37993 -1.40748e-15)
(37.4648 8.17206 0)
(37.6607 6.92984 -1.69318e-16)
(37.6965 5.67207 2.88522e-17)
(37.5574 4.42578 8.19664e-17)
(37.2375 3.22938 1.24552e-15)
(36.7576 2.12405 -4.52736e-18)
(36.16 1.13097 -3.33144e-17)
(35.4815 0.244094 -2.78656e-17)
(34.7373 -0.548228 6.18775e-17)
(33.9304 -1.24807 1.68246e-15)
(33.0641 -1.85314 5.92445e-15)
(32.141 -2.36177 4.80282e-17)
(31.1634 -2.76934 -4.2733e-15)
(30.1113 -3.06666 -3.29695e-15)
(29.0094 -3.22283 -4.78073e-15)
(27.6674 -3.23544 -2.70212e-15)
(26.4492 -2.82407 1.97849e-17)
(24.9071 -2.62529 1.81017e-15)
(18.709 12.2456 -6.03413e-17)
(18.2281 11.6277 -2.24723e-16)
(17.7516 10.8883 4.45272e-16)
(17.2898 10.0456 0)
(16.9057 9.14846 8.74116e-16)
(16.5984 8.18499 0)
(16.3881 7.17249 -4.79475e-16)
(16.2878 6.17179 1.92379e-15)
(16.2951 5.22195 -1.48817e-15)
(16.4012 4.32909 0)
(16.592 3.50615 1.10504e-15)
(16.8527 2.76403 1.06956e-15)
(17.1743 2.09749 0)
(17.5488 1.50175 -1.05676e-15)
(17.9687 0.975888 2.55903e-16)
(18.4294 0.516318 -2.56286e-16)
(18.9262 0.122058 2.4971e-16)
(19.4534 -0.206837 4.38867e-16)
(20.0058 -0.469908 -1.63118e-17)
(20.5778 -0.666489 5.3222e-16)
(21.1633 -0.795088 1.57511e-16)
(21.7555 -0.853879 -1.51198e-16)
(22.3466 -0.840471 -4.87703e-16)
(22.9248 -0.753739 4.19838e-16)
(23.4733 -0.595857 -3.05279e-16)
(23.9745 -0.374264 -3.22068e-16)
(24.417 -0.100865 -1.12556e-16)
(24.7951 0.212353 -1.25444e-18)
(25.1055 0.554636 9.60341e-18)
(25.346 0.915205 4.97244e-17)
(25.5156 1.28308 1.05027e-17)
(25.6151 1.64824 -1.93417e-17)
(25.6455 2.00233 2.35411e-16)
(25.6074 2.33703 -2.05905e-16)
(25.4951 2.64594 9.57854e-18)
(25.3071 2.91656 -7.19923e-16)
(24.9937 3.14018 1.86152e-15)
(24.6008 3.21113 0)
(23.854 3.11931 -6.43543e-15)
(19.7963 12.2896 1.005e-17)
(20.3529 12.8178 0)
(21.0158 13.3579 0)
(21.7528 13.8723 6.91362e-18)
(22.5277 14.321 -2.03606e-17)
(23.3781 14.7209 0)
(24.2786 15.0532 0)
(25.2108 15.3033 -6.58948e-16)
(26.1788 15.4683 -3.35052e-17)
(27.1687 15.541 -4.08274e-17)
(28.1724 15.5151 -1.57223e-15)
(29.186 15.3854 -4.124e-16)
(30.1981 15.1465 7.87298e-16)
(31.1984 14.7936 -6.72068e-17)
(32.1746 14.3231 0)
(33.111 13.734 0)
(33.9912 13.0281 -3.57923e-15)
(34.7978 12.2109 -6.61798e-16)
(35.5141 11.2913 6.71161e-16)
(36.124 10.2821 -1.39278e-15)
(36.6134 9.19914 2.65096e-15)
(36.9717 8.05979 1.2601e-15)
(37.1891 6.88188 -1.22653e-15)
(37.2542 5.6855 -1.39847e-15)
(37.1544 4.49563 2.23178e-16)
(36.8843 3.34425 -1.21866e-15)
(36.4588 2.26753 -1.38335e-16)
(35.9121 1.28851 3.07684e-17)
(35.2769 0.407262 -3.09519e-17)
(34.5692 -0.38353 1.03476e-16)
(33.7936 -1.0846 -4.31655e-17)
(32.9542 -1.69273 -2.90262e-15)
(32.0539 -2.20521 -1.0833e-16)
(31.0962 -2.61654 1.27228e-16)
(30.0658 -2.91793 0)
(28.9894 -3.07593 4.40958e-15)
(27.746 -3.0961 2.51151e-15)
(26.5163 -2.69895 0)
(24.961 -2.43404 0)
(19.3019 11.7451 0)
(18.8468 11.1766 2.00558e-16)
(18.3929 10.4951 -6.64408e-16)
(17.9498 9.71711 -3.22216e-16)
(17.5771 8.88939 -7.89523e-16)
(17.2733 7.99844 0)
(17.0572 7.06055 0)
(16.9419 6.13331 -8.56901e-16)
(16.9252 5.25276 8.95892e-16)
(16.9989 4.42374 0)
(17.15 3.65784 -4.66003e-16)
(17.3653 2.96512 -5.02919e-16)
(17.6368 2.33993 4.76218e-16)
(17.9576 1.77694 4.9413e-16)
(18.3218 1.27496 -9.18074e-16)
(18.7263 0.830561 0)
(19.1676 0.443017 -2.07701e-16)
(19.6418 0.113095 1.297e-17)
(20.1447 -0.157833 9.22537e-16)
(20.6715 -0.367945 -1.70907e-16)
(21.2165 -0.514623 1.64177e-16)
(21.7729 -0.595253 -1.25456e-16)
(22.3332 -0.606928 1.7805e-16)
(22.8859 -0.548082 -8.48001e-16)
(23.4146 -0.420053 -3.01487e-16)
(23.9023 -0.228683 2.61104e-16)
(24.3371 0.0158556 -1.60304e-17)
(24.7122 0.302533 0)
(25.0234 0.6209 -9.21872e-18)
(25.2676 0.960397 5.44529e-17)
(25.443 1.31016 -7.71428e-17)
(25.5497 1.65996 1.28611e-16)
(25.588 2.00113 -4.80873e-16)
(25.5581 2.3249 5.10095e-16)