/*--------------------------------*- C++ -*----------------------------------*\
| =========                 |                                                 |
| \\      /  F ield         | OpenFOAM: The Open Source CFD Toolbox           |
|  \\    /   O peration     | Version:  2312                                  |
|   \\  /    A nd           | Website:  www.openfoam.com                      |
|    \\/     M anipulation  |                                                 |
\*---------------------------------------------------------------------------*/
FoamFile
{
    version     2.0;
    format      ascii;
    arch        "LSB;label=32;scalar=64";
    class       volScalarField;
    location    "0.01";
    object      alphat.air;
}
// * * * * * * * * * * * * * * * * * * * * * * * * * * * * * * * * * * * * * //

dimensions      [1 -1 -1 0 0 0 0];

internalField   nonuniform List<scalar> 
6000
(
0.000359475
0.00326089
0.005381
0.0058653
0.00600747
0.00605751
0.00607601
0.0060825
0.00608446
0.00608485
0.00608476
0.00608458
0.00608441
0.0060843
0.00608425
0.00608425
0.0060843
0.00608441
0.00608457
0.00608476
0.00608485
0.00608446
0.0060825
0.00607601
0.00605751
0.00600748
0.0058653
0.00538101
0.0032609
0.000359475
0.000273722
0.00192984
0.00382783
0.00491656
0.00539436
0.00560057
0.00568431
0.00571572
0.00572628
0.00572923
0.00572971
0.00572952
0.00572924
0.00572903
0.00572892
0.00572892
0.00572903
0.00572924
0.00572952
0.0057297
0.00572923
0.00572628
0.00571572
0.00568432
0.00560058
0.00539438
0.00491659
0.00382785
0.00192986
0.000273722
0.00024595
0.00161556
0.00325475
0.00447404
0.00515788
0.00548713
0.00563042
0.00568723
0.00570764
0.00571416
0.0057159
0.00571618
0.00571609
0.00571597
0.0057159
0.0057159
0.00571597
0.00571609
0.00571618
0.0057159
0.00571416
0.00570764
0.00568724
0.00563044
0.00548715
0.00515792
0.00447408
0.00325479
0.00161558
0.00024595
0.00023548
0.0014879
0.00298186
0.00419775
0.00497721
0.00539494
0.00559132
0.00567344
0.0057043
0.00571473
0.00571786
0.00571863
0.00571873
0.00571869
0.00571865
0.00571865
0.00571869
0.00571873
0.00571863
0.00571786
0.00571473
0.0057043
0.00567345
0.00559134
0.00539498
0.00497726
0.0041978
0.00298191
0.00148793
0.00023548
0.000231703
0.00143717
0.00285995
0.00405781
0.00487
0.00533062
0.00555705
0.00565508
0.005693
0.00570622
0.00571037
0.00571151
0.00571175
0.00571176
0.00571175
0.00571175
0.00571177
0.00571175
0.00571151
0.00571037
0.00570622
0.00569301
0.0056551
0.00555708
0.00533066
0.00487006
0.00405787
0.00285999
0.00143719
0.000231703
0.000230072
0.00141808
0.00280906
0.00399165
0.00480993
0.00528857
0.00552912
0.00563532
0.00567712
0.00569195
0.00569671
0.00569808
0.00569841
0.00569847
0.00569846
0.00569846
0.00569847
0.00569841
0.00569808
0.00569671
0.00569195
0.00567712
0.00563533
0.00552915
0.00528861
0.00480999
0.00399171
0.0028091
0.0014181
0.000230073
0.000229071
0.00141108
0.00278629
0.0039587
0.00477811
0.00526121
0.00550678
0.00561631
0.00565984
0.00567543
0.00568051
0.005682
0.00568238
0.00568245
0.00568245
0.00568245
0.00568245
0.00568237
0.00568199
0.0056805
0.00567543
0.00565984
0.00561633
0.0055068
0.00526125
0.00477816
0.00395875
0.00278634
0.0014111
0.000229071
0.000228254
0.00140822
0.00277721
0.00394314
0.00475905
0.0052418
0.00548833
0.00559875
0.00564289
0.00565877
0.00566399
0.00566554
0.00566594
0.00566599
0.00566602
0.00566603
0.00566602
0.00566593
0.00566551
0.00566395
0.00565876
0.0056429
0.00559883
0.00548839
0.00524189
0.0047591
0.00394318
0.00277725
0.00140824
0.000228254
0.000227502
0.00140645
0.00277164
0.00393297
0.00474549
0.00522646
0.00547252
0.00558284
0.00562703
0.00564297
0.00564822
0.00564979
0.00565017
0.00565013
0.0056503
0.00565021
0.00565027
0.00565013
0.00564977
0.00564816
0.00564297
0.00562702
0.00558284
0.00547251
0.00522666
0.00474553
0.00393303
0.00277166
0.00140647
0.000227502
0.000226769
0.00140487
0.00276701
0.00392477
0.00473428
0.00521348
0.00545856
0.00556845
0.00561243
0.00562824
0.00563349
0.00563501
0.00563549
0.00563558
0.00563565
0.00563559
0.0056355
0.00563545
0.00563499
0.0056336
0.00562829
0.00561241
0.00556835
0.00545838
0.00521339
0.00473429
0.00392479
0.00276702
0.00140487
0.00022677
0.000226048
0.00140313
0.00276245
0.00391714
0.00472402
0.00520158
0.00544534
0.00555493
0.00559856
0.00561441
0.00561953
0.00562107
0.00562158
0.00562189
0.00562178
0.00562184
0.00562177
0.00562168
0.00562114
0.0056196
0.00561436
0.00559858
0.00555488
0.00544545
0.00520138
0.00472403
0.0039171
0.00276245
0.00140313
0.000226048
0.000225339
0.00140119
0.00275769
0.00390955
0.00471415
0.00519007
0.00543298
0.00554194
0.00558554
0.00560122
0.0056065
0.00560811
0.00560861
0.00560877
0.00560862
0.00560892
0.00560885
0.00560874
0.00560818
0.00560644
0.00560133
0.00558563
0.0055422
0.00543324
0.00519013
0.00471423
0.00390952
0.00275768
0.00140119
0.000225339
0.000224645
0.0013992
0.00275272
0.00390184
0.00470447
0.00517874
0.00542102
0.00552952
0.005573
0.00558882
0.00559404
0.0055957
0.00559611
0.00559614
0.00559626
0.00559612
0.00559623
0.00559599
0.00559571
0.005594
0.00558879
0.00557312
0.00552964
0.00542105
0.00517908
0.00470455
0.00390191
0.00275273
0.00139919
0.000224645
0.000223966
0.00139728
0.00274773
0.00389403
0.00469474
0.00516791
0.00540948
0.00551769
0.00556104
0.00557655
0.00558184
0.00558343
0.00558398
0.00558395
0.00558421
0.00558403
0.00558394
0.00558381
0.00558338
0.0055819
0.00557662
0.00556092
0.00551762
0.00540941
0.00516797
0.00469478
0.00389405
0.00274773
0.00139726
0.000223964
0.000223302
0.00139548
0.00274294
0.00388634
0.00468498
0.0051571
0.0053979
0.00550572
0.00554877
0.00556449
0.00556951
0.0055711
0.00557151
0.00557186
0.0055718
0.00557178
0.00557171
0.00557158
0.00557109
0.00556955
0.00556438
0.00554876
0.00550569
0.0053978
0.00515702
0.00468507
0.00388635
0.00274293
0.00139547
0.000223301
0.000222655
0.00139381
0.00273843
0.00387893
0.00467557
0.00514642
0.00538636
0.00549407
0.00553683
0.00555246
0.00555753
0.0055591
0.00555961
0.00555967
0.00555974
0.00555983
0.0055599
0.00555978
0.00555916
0.00555762
0.00555237
0.00553699
0.00549405
0.00538646
0.00514644
0.00467552
0.00387898
0.00273846
0.00139381
0.000222654
0.000222008
0.00139212
0.00273402
0.0038717
0.00466601
0.00513527
0.00537456
0.00548178
0.00552462
0.00554005
0.00554526
0.00554695
0.00554734
0.00554748
0.00554751
0.0055476
0.00554745
0.0055473
0.00554679
0.00554505
0.00554001
0.00552448
0.0054817
0.00537457
0.00513522
0.00466604
0.00387179
0.00273408
0.00139214
0.000222009
0.000221365
0.00139036
0.00272959
0.00386459
0.0046568
0.00512471
0.00536327
0.00547011
0.0055128
0.00552818
0.00553336
0.00553495
0.00553543
0.00553559
0.00553561
0.00553561
0.00553553
0.00553538
0.0055349
0.00553319
0.00552816
0.0055127
0.00547006
0.00536328
0.00512472
0.00465686
0.00386469
0.00272966
0.00139039
0.000221366
0.000220734
0.00138854
0.00272509
0.00385753
0.00464782
0.00511451
0.00535236
0.00545886
0.00550135
0.00551677
0.00552186
0.00552345
0.0055239
0.00552404
0.00552408
0.00552409
0.00552404
0.0055239
0.0055234
0.00552183
0.0055167
0.00550137
0.00545886
0.00535237
0.00511455
0.00464789
0.00385762
0.00272516
0.00138857
0.000220735
0.000220105
0.00138669
0.00272053
0.00385048
0.00463899
0.00510457
0.00534188
0.00544799
0.00549042
0.0055057
0.00551081
0.00551236
0.00551286
0.00551302
0.00551303
0.00551298
0.00551295
0.0055128
0.00551236
0.00551077
0.00550571
0.00549034
0.00544801
0.00534188
0.00510459
0.00463905
0.00385055
0.00272058
0.00138671
0.000220106
0.000219488
0.00138477
0.00271589
0.00384342
0.00463026
0.00509486
0.00533153
0.0054374
0.00547961
0.00549496
0.00549997
0.00550152
0.00550195
0.00550206
0.00550212
0.0055021
0.00550206
0.005502
0.00550156
0.00550013
0.00549497
0.00547971
0.00543742
0.00533148
0.00509486
0.00463031
0.00384347
0.00271592
0.00138479
0.000219489
0.000218884
0.00138286
0.00271129
0.00383641
0.00462165
0.00508536
0.00532162
0.00542726
0.00546949
0.00548467
0.00548975
0.00549129
0.00549176
0.00549185
0.00549185
0.00549177
0.00549183
0.0054917
0.00549134
0.00548978
0.00548477
0.00546949
0.00542727
0.00532168
0.00508532
0.00462168
0.00383643
0.00271129
0.00138286
0.000218884
0.000218295
0.00138101
0.00270679
0.00382956
0.00461316
0.00507596
0.00531181
0.00541733
0.00545937
0.0054746
0.00547962
0.00548119
0.00548158
0.00548171
0.00548172
0.00548176
0.00548166
0.0054816
0.00548124
0.00547965
0.00547463
0.00545946
0.00541737
0.00531191
0.00507605
0.00461318
0.00382955
0.00270678
0.001381
0.000218295
0.000217719
0.00137924
0.00270243
0.00382288
0.00460485
0.00506682
0.00530212
0.00540737
0.0054493
0.00546438
0.00546946
0.005471
0.00547152
0.00547169
0.00547174
0.00547178
0.00547194
0.00547163
0.00547109
0.00546956
0.00546449
0.00544936
0.00540758
0.00530233
0.00506691
0.00460485
0.00382288
0.00270243
0.00137924
0.000217718
0.000217155
0.00137753
0.0026982
0.00381634
0.00459663
0.00505746
0.00529252
0.00539743
0.00543931
0.00545445
0.00545943
0.00546101
0.00546147
0.00546161
0.00546167
0.00546162
0.00546145
0.00546148
0.0054611
0.00545951
0.00545452
0.00543938
0.00539742
0.00529244
0.00505747
0.0045966
0.00381636
0.00269823
0.00137754
0.000217154
0.000216604
0.00137585
0.00269408
0.00380997
0.00458861
0.00504832
0.00528253
0.00538726
0.00542902
0.00544405
0.00544906
0.00545061
0.00545107
0.00545121
0.00545124
0.00545126
0.00545121
0.0054511
0.00545064
0.00544906
0.00544403
0.00542896
0.00538724
0.00528257
0.00504835
0.0045886
0.00381
0.00269411
0.00137587
0.000216604
0.000216059
0.00137416
0.00268999
0.00380372
0.00458081
0.00503953
0.00527317
0.00537758
0.00541926
0.00543425
0.00543925
0.0054408
0.00544126
0.0054414
0.00544142
0.00544139
0.00544135
0.00544123
0.00544078
0.00543921
0.00543421
0.00541918
0.00537756
0.00527316
0.00503951
0.0045808
0.00380376
0.00269003
0.00137418
0.000216059
0.000215519
0.00137244
0.00268592
0.00379756
0.00457318
0.005031
0.00526414
0.00536833
0.00540984
0.00542483
0.0054298
0.00543133
0.0054318
0.00543193
0.00543198
0.00543196
0.0054319
0.00543173
0.00543129
0.00542975
0.00542479
0.00540981
0.00536834
0.00526417
0.00503102
0.00457318
0.0037976
0.00268595
0.00137245
0.000215519
0.000214989
0.00137069
0.00268184
0.00379147
0.00456572
0.00502266
0.00525535
0.00535926
0.00540075
0.0054157
0.00542062
0.00542216
0.00542262
0.00542281
0.0054228
0.00542271
0.00542265
0.00542252
0.00542212
0.00542063
0.00541567
0.00540078
0.00535925
0.00525531
0.00502267
0.00456573
0.00379152
0.00268187
0.00137071
0.00021499
0.000214475
0.00136896
0.00267779
0.00378547
0.00455843
0.00501466
0.00524689
0.00535068
0.00539188
0.00540682
0.00541173
0.00541326
0.0054137
0.00541384
0.00541395
0.00541399
0.00541399
0.00541383
0.00541334
0.00541178
0.00540689
0.00539195
0.00535071
0.00524698
0.00501471
0.00455846
0.00378552
0.00267781
0.00136897
0.000214475
0.000213976
0.00136726
0.00267384
0.00377961
0.00455134
0.00500689
0.00523879
0.00534234
0.00538353
0.00539834
0.00540326
0.0054048
0.00540521
0.00540539
0.0054054
0.0054055
0.00540548
0.00540543
0.00540488
0.00540338
0.00539844
0.00538355
0.00534236
0.00523881
0.00500695
0.00455133
0.00377964
0.00267384
0.00136727
0.000213976
0.00021349
0.00136564
0.00267004
0.00377394
0.0045444
0.00499931
0.00523083
0.00533418
0.00537527
0.00539009
0.00539499
0.00539649
0.00539693
0.00539701
0.00539713
0.00539711
0.0053971
0.00539691
0.00539646
0.00539492
0.00539009
0.00537524
0.00533418
0.00523087
0.00499922
0.00454447
0.00377393
0.00267002
0.00136564
0.00021349
0.000213017
0.00136408
0.00266636
0.00376844
0.00453757
0.0049918
0.00522294
0.00532622
0.00536722
0.00538211
0.00538699
0.00538844
0.00538898
0.00538911
0.00538893
0.00538909
0.00538899
0.00538876
0.00538839
0.00538692
0.00538192
0.00536731
0.00532616
0.00522288
0.00499188
0.00453775
0.00376842
0.00266634
0.00136407
0.000213016
0.000212556
0.00136257
0.0026628
0.00376308
0.0045309
0.00498414
0.00521482
0.00531774
0.00535879
0.00537353
0.00537844
0.00538
0.00538036
0.00538054
0.00538059
0.00538058
0.00538057
0.00538038
0.00537994
0.00537836
0.00537355
0.00535878
0.00531783
0.00521485
0.00498417
0.00453096
0.00376308
0.00266278
0.00136256
0.000212556
0.000212108
0.00136109
0.00265933
0.00375786
0.00452445
0.00497688
0.00520714
0.00530986
0.00535082
0.00536552
0.0053704
0.00537195
0.00537231
0.0053725
0.00537254
0.00537255
0.00537253
0.00537236
0.00537194
0.00537038
0.00536556
0.00535081
0.00530996
0.00520719
0.0049769
0.00452447
0.00375787
0.00265932
0.00136109
0.000212107
0.000211671
0.00135963
0.00265592
0.00375277
0.00451819
0.0049699
0.00519977
0.00530239
0.00534319
0.00535787
0.00536272
0.00536422
0.00536464
0.0053648
0.00536483
0.00536484
0.0053648
0.00536465
0.00536424
0.00536273
0.00535791
0.00534319
0.00530238
0.00519983
0.00496992
0.00451822
0.00375279
0.00265592
0.00135963
0.000211671
0.000211242
0.00135817
0.00265256
0.00374779
0.00451208
0.00496312
0.00519269
0.00529508
0.00533584
0.00535048
0.00535531
0.00535679
0.00535726
0.00535737
0.00535748
0.00535736
0.00535735
0.00535726
0.0053568
0.00535535
0.00535052
0.00533583
0.0052951
0.00519258
0.00496316
0.00451211
0.00374781
0.00265258
0.00135817
0.000211243
0.000210822
0.00135671
0.00264925
0.00374291
0.00450614
0.00495654
0.00518568
0.00528802
0.00532862
0.00534327
0.00534808
0.00534948
0.00535
0.00535013
0.0053501
0.00535011
0.00535004
0.00534995
0.00534953
0.00534808
0.00534322
0.00532859
0.00528787
0.00518567
0.00495658
0.00450617
0.00374294
0.00264927
0.00135672
0.000210823
0.000210417
0.00135528
0.00264599
0.00373813
0.0045003
0.00495018
0.0051791
0.00528116
0.0053218
0.00533631
0.00534117
0.00534272
0.00534318
0.00534315
0.00534319
0.00534315
0.00534315
0.00534315
0.0053426
0.00534119
0.00533633
0.0053218
0.00528114
0.00517909
0.00495023
0.00450037
0.00373816
0.00264602
0.00135529
0.000210417
0.000210026
0.00135388
0.00264284
0.00373351
0.00449477
0.00494408
0.00517264
0.00527461
0.00531511
0.00532966
0.00533441
0.00533597
0.00533634
0.00533649
0.00533653
0.00533659
0.00533653
0.00533642
0.005336
0.00533444
0.0053297
0.0053151
0.00527459
0.00517271
0.00494412
0.0044948
0.00373355
0.00264287
0.0013539
0.000210026
0.000209646
0.00135254
0.0026398
0.00372903
0.00448937
0.00493808
0.00516636
0.0052681
0.00530862
0.00532317
0.00532797
0.00532944
0.00532989
0.00532999
0.00533012
0.00533001
0.00532999
0.00532986
0.00532943
0.00532799
0.0053232
0.00530866
0.00526823
0.00516633
0.00493811
0.00448951
0.00372909
0.00263983
0.00135256
0.000209646
0.000209279
0.00135125
0.00263686
0.00372474
0.00448419
0.00493235
0.00516009
0.00526181
0.00530217
0.0053168
0.00532165
0.00532307
0.00532346
0.00532365
0.0053236
0.00532375
0.00532362
0.00532338
0.00532305
0.00532167
0.00531679
0.00530228
0.00526192
0.00516029
0.00493237
0.00448407
0.00372478
0.00263691
0.00135127
0.000209279
0.000208922
0.00135001
0.00263404
0.00372055
0.00447891
0.00492642
0.00515422
0.00525581
0.00529615
0.00531062
0.00531534
0.00531682
0.00531731
0.0053174
0.00531745
0.00531734
0.00531739
0.00531732
0.00531677
0.00531529
0.00531051
0.00529599
0.00525563
0.00515412
0.00492646
0.00447895
0.0037206
0.00263407
0.00135002
0.000208922
0.000208577
0.00134879
0.0026313
0.0037165
0.00447393
0.00492088
0.00514826
0.00524965
0.00528995
0.00530445
0.00530919
0.00531067
0.00531109
0.00531121
0.00531124
0.00531122
0.00531121
0.0053111
0.00531065
0.00530921
0.00530443
0.00528995
0.00524966
0.00514827
0.00492093
0.00447399
0.00371655
0.00263132
0.0013488
0.000208577
0.000208243
0.00134761
0.00262862
0.00371258
0.00446915
0.0049156
0.00514267
0.00524392
0.00528415
0.00529859
0.00530334
0.00530481
0.00530523
0.00530536
0.00530539
0.00530537
0.00530533
0.00530524
0.0053048
0.00530335
0.00529861
0.00528414
0.00524394
0.00514268
0.00491562
0.00446919
0.00371261
0.00262864
0.00134761
0.000208243
0.000207919
0.00134644
0.00262601
0.00370877
0.00446455
0.00491052
0.00513728
0.00523841
0.00527858
0.00529301
0.00529779
0.00529923
0.00529963
0.00529972
0.00529976
0.00529981
0.00529977
0.00529966
0.00529925
0.00529775
0.00529299
0.00527859
0.00523843
0.00513734
0.00491051
0.00446456
0.00370879
0.00262602
0.00134645
0.000207919
0.000207603
0.0013453
0.00262346
0.00370507
0.00446003
0.00490557
0.00513209
0.00523305
0.00527316
0.00528751
0.0052922
0.00529366
0.00529413
0.00529425
0.00529429
0.00529426
0.00529423
0.00529411
0.0052937
0.00529223
0.00528753
0.00527309
0.00523302
0.00513203
0.0049055
0.00446004
0.00370507
0.00262347
0.0013453
0.000207603
0.000207299
0.00134417
0.00262097
0.00370143
0.0044557
0.00490075
0.005127
0.0052279
0.00526794
0.00528234
0.00528712
0.00528851
0.00528892
0.00528903
0.00528905
0.00528909
0.00528908
0.00528896
0.00528855
0.00528708
0.0052823
0.005268
0.00522788
0.00512704
0.00490074
0.00445569
0.00370147
0.00262098
0.00134418
0.000207299
0.000207007
0.00134309
0.00261856
0.00369799
0.00445154
0.0048961
0.0051222
0.00522292
0.00526301
0.00527734
0.00528213
0.00528351
0.00528394
0.00528403
0.00528412
0.00528408
0.00528406
0.0052839
0.00528354
0.00528209
0.00527739
0.00526298
0.00522302
0.00512219
0.0048962
0.00445153
0.003698
0.00261858
0.00134309
0.000207007
0.000206724
0.00134204
0.00261625
0.00369466
0.00444751
0.00489169
0.00511749
0.00521823
0.00525818
0.00527254
0.00527728
0.00527875
0.00527914
0.00527923
0.00527925
0.00527929
0.00527922
0.00527915
0.00527869
0.00527725
0.00527251
0.00525822
0.00521821
0.00511759
0.00489172
0.00444755
0.00369471
0.00261628
0.00134205
0.000206725
0.000206452
0.00134103
0.00261405
0.00369152
0.00444362
0.00488739
0.00511302
0.00521354
0.00525347
0.00526781
0.00527249
0.00527395
0.0052744
0.00527454
0.00527453
0.0052745
0.00527449
0.00527435
0.00527393
0.00527251
0.00526783
0.00525346
0.00521354
0.00511298
0.00488737
0.00444363
0.00369146
0.00261407
0.00134104
0.000206453
0.00020619
0.00134007
0.00261193
0.00368836
0.00443981
0.00488319
0.00510861
0.00520908
0.00524892
0.00526331
0.00526803
0.0052695
0.00526985
0.00527003
0.00527002
0.00527008
0.00527
0.00526993
0.0052695
0.00526808
0.00526333
0.00524902
0.0052091
0.00510867
0.00488321
0.00443985
0.00368835
0.00261195
0.00134008
0.00020619
0.000205937
0.00133914
0.00260989
0.00368536
0.00443613
0.00487914
0.00510434
0.00520466
0.00524451
0.00525879
0.00526352
0.00526492
0.00526537
0.00526545
0.00526552
0.00526549
0.00526549
0.00526534
0.00526496
0.00526351
0.00525882
0.00524448
0.00520469
0.00510429
0.00487915
0.00443616
0.00368538
0.00260991
0.00133915
0.000205938
0.000205694
0.00133823
0.00260791
0.00368248
0.00443263
0.00487523
0.00510024
0.00520048
0.00524029
0.00525456
0.00525927
0.00526068
0.00526112
0.0052612
0.00526126
0.00526124
0.00526124
0.0052611
0.00526071
0.00525926
0.00525457
0.00524026
0.00520051
0.00510021
0.00487526
0.00443267
0.00368251
0.00260793
0.00133824
0.000205694
0.00020546
0.00133735
0.00260598
0.00367969
0.00442925
0.0048715
0.00509631
0.00519649
0.00523624
0.00525052
0.00525521
0.00525663
0.00525706
0.00525716
0.00525719
0.00525718
0.00525715
0.00525704
0.00525662
0.00525519
0.0052505
0.00523624
0.00519649
0.00509633
0.00487153
0.00442929
0.00367973
0.002606
0.00133736
0.00020546
0.000205234
0.0013365
0.00260412
0.003677
0.00442601
0.00486791
0.00509255
0.00519263
0.00523238
0.00524662
0.00525132
0.00525274
0.00525315
0.00525326
0.0052533
0.0052533
0.00525325
0.00525316
0.00525272
0.0052513
0.00524662
0.00523239
0.00519266
0.00509259
0.00486797
0.00442604
0.00367704
0.00260414
0.00133651
0.000205234
0.000205016
0.00133567
0.00260232
0.0036744
0.00442286
0.00486445
0.00508889
0.00518892
0.00522857
0.00524284
0.00524746
0.00524895
0.00524931
0.00524946
0.00524946
0.00524949
0.00524944
0.00524934
0.00524892
0.00524748
0.00524279
0.00522862
0.00518887
0.00508893
0.00486444
0.00442289
0.00367444
0.00260234
0.00133568
0.000205016
0.000204806
0.00133487
0.00260057
0.0036719
0.00441989
0.00486112
0.00508545
0.00518534
0.00522504
0.00523919
0.00524388
0.00524532
0.0052457
0.00524583
0.00524586
0.00524587
0.00524583
0.00524575
0.00524532
0.00524391
0.00523924
0.005225
0.00518536
0.00508543
0.00486115
0.00441989
0.00367194
0.0026006
0.00133488
0.000204807
0.000204606
0.00133409
0.00259891
0.00366954
0.00441702
0.004858
0.00508211
0.00518198
0.00522156
0.0052358
0.00524045
0.00524187
0.00524227
0.0052424
0.00524241
0.0052424
0.00524238
0.00524228
0.00524187
0.00524046
0.00523577
0.00522155
0.00518194
0.00508211
0.00485798
0.00441706
0.00366953
0.00259893
0.0013341
0.000204606
0.000204413
0.00133335
0.00259731
0.00366727
0.00441426
0.00485492
0.00507892
0.00517867
0.00521829
0.00523246
0.00523718
0.00523856
0.00523899
0.00523906
0.00523912
0.00523909
0.00523907
0.00523896
0.00523855
0.00523711
0.00523248
0.00521825
0.00517869
0.00507891
0.00485495
0.00441425
0.00366728
0.00259733
0.00133336
0.000204413
0.000204228
0.00133264
0.00259578
0.00366502
0.00441156
0.00485199
0.00507579
0.00517552
0.00521501
0.00522925
0.00523391
0.00523536
0.00523574
0.00523585
0.00523586
0.00523588
0.00523585
0.00523571
0.00523531
0.00523388
0.00522923
0.00521508
0.00517549
0.00507582
0.00485196
0.00441163
0.0036651
0.00259581
0.00133264
0.000204228
0.00020405
0.00133195
0.00259432
0.0036629
0.004409
0.00484915
0.00507286
0.0051725
0.00521205
0.00522622
0.00523089
0.00523231
0.00523276
0.00523284
0.00523289
0.00523288
0.00523283
0.00523268
0.00523227
0.00523095
0.00522626
0.00521208
0.00517258
0.00507289
0.00484922
0.00440901
0.00366294
0.00259434
0.00133196
0.00020405
0.00020388
0.00133129
0.0025929
0.00366088
0.00440652
0.0048464
0.00506995
0.00516953
0.00520903
0.0052232
0.00522785
0.00522927
0.00522968
0.00522982
0.00522981
0.00522982
0.00522983
0.00522975
0.00522936
0.00522786
0.00522322
0.00520905
0.00516955
0.00506996
0.00484642
0.00440654
0.00366091
0.00259293
0.0013313
0.00020388
0.000203717
0.00133066
0.00259155
0.00365893
0.00440416
0.00484379
0.00506721
0.00516673
0.0052062
0.00522036
0.00522501
0.00522642
0.00522682
0.00522694
0.00522696
0.00522696
0.00522694
0.00522683
0.00522643
0.00522501
0.00522036
0.00520621
0.00516673
0.00506722
0.00484381
0.00440418
0.00365896
0.00259157
0.00133066
0.000203717
0.00020356
0.00133004
0.00259024
0.00365706
0.0044019
0.00484129
0.00506459
0.00516404
0.0052035
0.00521764
0.00522229
0.0052237
0.0052241
0.00522421
0.00522424
0.00522424
0.00522421
0.0052241
0.0052237
0.00522228
0.00521764
0.0052035
0.00516405
0.0050646
0.00484131
0.00440192
0.00365709
0.00259026
0.00133005
0.00020356
0.00020341
0.00132945
0.00258899
0.00365526
0.00439973
0.00483889
0.00506207
0.00516147
0.0052009
0.00521503
0.00521968
0.00522109
0.00522149
0.0052216
0.00522163
0.00522163
0.0052216
0.00522149
0.00522109
0.00521968
0.00521503
0.0052009
0.00516148
0.00506208
0.00483891
0.00439975
0.00365529
0.00258901
0.00132946
0.00020341
0.000203267
0.00132889
0.00258779
0.00365354
0.00439764
0.0048366
0.00505966
0.00515901
0.00519841
0.00521254
0.00521717
0.00521858
0.00521899
0.00521909
0.00521912
0.00521912
0.00521909
0.00521899
0.00521858
0.00521717
0.00521254
0.00519841
0.00515901
0.00505967
0.00483661
0.00439767
0.00365356
0.00258781
0.0013289
0.000203267
0.000203129
0.00132834
0.00258663
0.00365189
0.00439565
0.00483439
0.00505735
0.00515664
0.00519602
0.00521014
0.00521477
0.00521618
0.00521659
0.00521669
0.00521672
0.00521672
0.00521669
0.00521659
0.00521618
0.00521477
0.00521014
0.00519602
0.00515665
0.00505736
0.00483441
0.00439567
0.00365191
0.00258665
0.00132835
0.000203129
0.000202998
0.00132782
0.00258553
0.0036503
0.00439373
0.00483228
0.00505513
0.00515437
0.00519374
0.00520785
0.00521248
0.00521388
0.00521429
0.00521439
0.00521442
0.00521442
0.00521439
0.00521429
0.00521388
0.00521248
0.00520785
0.00519374
0.00515438
0.00505514
0.0048323
0.00439376
0.00365033
0.00258554
0.00132782
0.000202998
0.000202873
0.00132731
0.00258446
0.00364878
0.0043919
0.00483026
0.00505301
0.0051522
0.00519154
0.00520565
0.00521027
0.00521168
0.00521208
0.00521219
0.00521222
0.00521222
0.00521219
0.00521208
0.00521168
0.00521027
0.00520565
0.00519155
0.00515221
0.00505302
0.00483028
0.00439192
0.00364881
0.00258448
0.00132732
0.000202873
0.000202753
0.00132682
0.00258344
0.00364732
0.00439014
0.00482832
0.00505097
0.00515012
0.00518945
0.00520354
0.00520816
0.00520957
0.00520997
0.00521008
0.0052101
0.0052101
0.00521008
0.00520997
0.00520957
0.00520816
0.00520354
0.00518945
0.00515013
0.00505098
0.00482834
0.00439016
0.00364735
0.00258346
0.00132683
0.000202753
0.000202639
0.00132635
0.00258246
0.00364592
0.00438845
0.00482646
0.00504902
0.00514813
0.00518743
0.00520152
0.00520614
0.00520755
0.00520795
0.00520805
0.00520808
0.00520808
0.00520805
0.00520795
0.00520755
0.00520614
0.00520152
0.00518744
0.00514814
0.00504903
0.00482648
0.00438848
0.00364595
0.00258248
0.00132636
0.000202639
0.00020253
0.00132589
0.00258151
0.00364458
0.00438684
0.00482468
0.00504715
0.00514622
0.00518551
0.00519959
0.00520421
0.00520561
0.00520601
0.00520612
0.00520614
0.00520614
0.00520612
0.00520601
0.00520561
0.00520421
0.00519959
0.00518551
0.00514622
0.00504716
0.0048247
0.00438686
0.00364461
0.00258153
0.0013259
0.00020253
0.000202426
0.00132545
0.00258061
0.00364329
0.00438529
0.00482297
0.00504536
0.00514439
0.00518366
0.00519773
0.00520235
0.00520375
0.00520415
0.00520426
0.00520428
0.00520428
0.00520426
0.00520415
0.00520375
0.00520235
0.00519773
0.00518366
0.00514439
0.00504537
0.00482299
0.00438531
0.00364332
0.00258063
0.00132546
0.000202426
0.000202327
0.00132503
0.00257973
0.00364206
0.0043838
0.00482133
0.00504364
0.00514264
0.00518189
0.00519596
0.00520057
0.00520197
0.00520237
0.00520248
0.0052025
0.0052025
0.00520248
0.00520237
0.00520197
0.00520057
0.00519596
0.00518189
0.00514264
0.00504366
0.00482135
0.00438383
0.00364209
0.00257975
0.00132504
0.000202327
0.000202232
0.00132462
0.0025789
0.00364087
0.00438238
0.00481976
0.005042
0.00514095
0.00518019
0.00519425
0.00519887
0.00520027
0.00520066
0.00520077
0.0052008
0.0052008
0.00520077
0.00520066
0.00520027
0.00519887
0.00519425
0.0051802
0.00514096
0.00504201
0.00481978
0.0043824
0.0036409
0.00257892
0.00132463
0.000202233
0.000202142
0.00132422
0.00257809
0.00363973
0.00438101
0.00481826
0.00504042
0.00513934
0.00517857
0.00519262
0.00519723
0.00519863
0.00519903
0.00519914
0.00519916
0.00519916
0.00519914
0.00519903
0.00519863
0.00519723
0.00519262
0.00517857
0.00513935
0.00504043
0.00481828
0.00438103
0.00363976
0.00257811
0.00132423
0.000202142
0.000202056
0.00132384
0.00257731
0.00363864
0.00437969
0.00481681
0.00503891
0.0051378
0.00517701
0.00519106
0.00519567
0.00519706
0.00519746
0.00519757
0.00519759
0.00519759
0.00519757
0.00519746
0.00519706
0.00519567
0.00519106
0.00517701
0.0051378
0.00503892
0.00481683
0.00437972
0.00363866
0.00257733
0.00132385
0.000202056
0.000201974
0.00132346
0.00257655
0.00363758
0.00437842
0.00481542
0.00503746
0.00513632
0.00517551
0.00518956
0.00519416
0.00519556
0.00519596
0.00519606
0.00519609
0.00519609
0.00519606
0.00519596
0.00519556
0.00519416
0.00518956
0.00517551
0.00513632
0.00503747
0.00481544
0.00437845
0.0036376
0.00257657
0.00132347
0.000201975
0.000201897
0.00132309
0.00257581
0.00363655
0.0043772
0.00481409
0.00503606
0.00513489
0.00517408
0.00518811
0.00519272
0.00519411
0.00519451
0.00519461
0.00519464
0.00519464
0.00519461
0.00519451
0.00519411
0.00519272
0.00518812
0.00517408
0.00513489
0.00503607
0.00481411
0.00437723
0.00363658
0.00257583
0.0013231
0.000201897
0.000201823
0.00132273
0.00257509
0.00363555
0.00437602
0.0048128
0.00503471
0.00513352
0.00517269
0.00518673
0.00519133
0.00519272
0.00519312
0.00519322
0.00519325
0.00519325
0.00519322
0.00519312
0.00519272
0.00519133
0.00518673
0.0051727
0.00513352
0.00503472
0.00481282
0.00437605
0.00363558
0.00257511
0.00132273
0.000201823
0.000201752
0.00132236
0.00257439
0.00363458
0.00437488
0.00481155
0.00503342
0.0051322
0.00517136
0.00518539
0.00518999
0.00519139
0.00519178
0.00519189
0.00519191
0.00519191
0.00519189
0.00519178
0.00519139
0.00518999
0.00518539
0.00517136
0.0051322
0.00503343
0.00481157
0.0043749
0.00363461
0.00257441
0.00132237
0.000201752
0.000201684
0.00132201
0.00257369
0.00363363
0.00437376
0.00481035
0.00503216
0.00513093
0.00517008
0.00518411
0.0051887
0.0051901
0.00519049
0.00519059
0.00519062
0.00519062
0.00519059
0.00519049
0.0051901
0.0051887
0.00518411
0.00517008
0.00513093
0.00503218
0.00481036
0.00437379
0.00363366
0.00257371
0.00132201
0.000201684
0.000201619
0.00132165
0.002573
0.0036327
0.00437268
0.00480918
0.00503096
0.0051297
0.00516884
0.00518287
0.00518746
0.00518886
0.00518925
0.00518935
0.00518938
0.00518938
0.00518935
0.00518925
0.00518886
0.00518746
0.00518287
0.00516885
0.0051297
0.00503097
0.0048092
0.0043727
0.00363273
0.00257302
0.00132165
0.00020162
0.000201557
0.00132128
0.00257231
0.00363178
0.00437162
0.00480805
0.00502979
0.00512851
0.00516766
0.00518167
0.00518627
0.00518766
0.00518805
0.00518815
0.00518818
0.00518818
0.00518815
0.00518805
0.00518766
0.00518627
0.00518168
0.00516766
0.00512852
0.0050298
0.00480806
0.00437165
0.00363181
0.00257233
0.00132129
0.000201557
0.000201497
0.00132089
0.00257161
0.00363087
0.00437058
0.00480695
0.00502866
0.00512738
0.00516651
0.00518053
0.00518512
0.00518651
0.0051869
0.00518701
0.00518703
0.00518703
0.00518701
0.0051869
0.00518651
0.00518512
0.00518053
0.00516652
0.00512738
0.00502867
0.00480697
0.00437061
0.00363089
0.00257163
0.0013209
0.000201497
0.00020144
0.00132047
0.00257089
0.00362995
0.00436956
0.00480589
0.00502759
0.0051263
0.00516543
0.00517945
0.00518404
0.00518543
0.00518582
0.00518592
0.00518594
0.00518594
0.00518592
0.00518582
0.00518543
0.00518404
0.00517945
0.00516544
0.00512631
0.0050276
0.00480591
0.00436959
0.00362998
0.00257091
0.00132048
0.00020144
0.000201384
0.00132001
0.00257014
0.00362903
0.00436857
0.00480488
0.00502659
0.0051253
0.00516444
0.00517845
0.00518304
0.00518443
0.00518482
0.00518492
0.00518494
0.00518494
0.00518492
0.00518482
0.00518443
0.00518304
0.00517845
0.00516444
0.00512531
0.0050266
0.0048049
0.0043686
0.00362906
0.00257016
0.00132002
0.000201384
0.00020133
0.0013195
0.00256936
0.00362811
0.00436763
0.00480397
0.0050257
0.00512444
0.00516358
0.0051776
0.00518219
0.00518358
0.00518397
0.00518407
0.00518409
0.00518409