/*--------------------------------*- C++ -*----------------------------------*\
| =========                 |                                                 |
| \\      /  F ield         | OpenFOAM: The Open Source CFD Toolbox           |
|  \\    /   O peration     | Version:  2312                                  |
|   \\  /    A nd           | Website:  www.openfoam.com                      |
|    \\/     M anipulation  |                                                 |
\*---------------------------------------------------------------------------*/
FoamFile
{
    version     2.0;
    format      ascii;
    arch        "LSB;label=32;scalar=64";
    class       volScalarField;
    location    "0.01";
    object      alpha.particles;
}
// * * * * * * * * * * * * * * * * * * * * * * * * * * * * * * * * * * * * * //

dimensions      [0 0 0 0 0 0 0];

internalField   nonuniform List<scalar> 
6000
(
0.526775
0.516623
0.514226
0.513493
0.512781
0.512383
0.512157
0.512018
0.511926
0.511862
0.511817
0.511786
0.511764
0.511751
0.511745
0.511745
0.511751
0.511764
0.511786
0.511817
0.511862
0.511926
0.512018
0.512157
0.512383
0.51278
0.513493
0.514226
0.516623
0.526775
0.534039
0.531296
0.528983
0.527236
0.526153
0.525629
0.525401
0.525305
0.525266
0.525246
0.525237
0.525231
0.525228
0.525225
0.525224
0.525225
0.525226
0.525228
0.525231
0.525237
0.525247
0.525266
0.525306
0.525401
0.525629
0.526153
0.527236
0.528983
0.531296
0.534039
0.544708
0.546627
0.545822
0.544652
0.543824
0.543363
0.543156
0.543074
0.543049
0.543043
0.543046
0.543048
0.54305
0.543052
0.543053
0.543053
0.543053
0.543051
0.543048
0.543046
0.543044
0.543049
0.543074
0.543156
0.543364
0.543824
0.544652
0.545822
0.546627
0.544708
0.549469
0.550999
0.551092
0.550783
0.55043
0.550178
0.550035
0.549971
0.549943
0.549932
0.549929
0.549926
0.549927
0.549927
0.549928
0.549926
0.549928
0.549927
0.549929
0.549932
0.549933
0.549944
0.549973
0.550036
0.550176
0.550428
0.550782
0.551092
0.550998
0.549468
0.551198
0.55211
0.552405
0.552416
0.552325
0.552237
0.552165
0.552138
0.552119
0.552112
0.552108
0.552104
0.552105
0.552101
0.552103
0.552103
0.552105
0.552104
0.55211
0.552116
0.552115
0.552122
0.552141
0.552167
0.552231
0.552324
0.552414
0.552404
0.552112
0.551196
0.551944
0.552676
0.553045
0.553173
0.553196
0.55319
0.553178
0.553175
0.553167
0.553165
0.553169
0.553162
0.553166
0.553154
0.553156
0.553154
0.553162
0.553156
0.553163
0.553176
0.55317
0.553175
0.553179
0.553182
0.55319
0.553203
0.553168
0.553044
0.55268
0.551944
0.552278
0.553001
0.553396
0.55357
0.553622
0.553651
0.553669
0.553678
0.553676
0.55368
0.553686
0.553686
0.553693
0.553689
0.553688
0.553666
0.553686
0.553683
0.553683
0.553698
0.553696
0.55369
0.553691
0.553678
0.553657
0.553627
0.553561
0.553392
0.553005
0.55228
0.552433
0.553162
0.553579
0.553723
0.553772
0.553781
0.553791
0.553818
0.553809
0.553836
0.553835
0.553836
0.553854
0.55384
0.553855
0.553835
0.553857
0.553846
0.553849
0.553848
0.55386
0.553842
0.55385
0.553818
0.553802
0.553785
0.553718
0.55357
0.553162
0.552435
0.552499
0.553207
0.553663
0.553775
0.553833
0.553822
0.553859
0.553868
0.553886
0.553904
0.553918
0.553918
0.553911
0.55388
0.55392
0.553893
0.55392
0.553906
0.553943
0.553915
0.55393
0.553909
0.553896
0.553876
0.55389
0.553845
0.553795
0.553655
0.553204
0.552499
0.552519
0.553185
0.553699
0.553832
0.553898
0.5539
0.553932
0.553955
0.553958
0.553947
0.553958
0.553943
0.553956
0.553948
0.553985
0.553946
0.553947
0.553956
0.553975
0.553988
0.553992
0.553954
0.553934
0.553902
0.553885
0.553894
0.553844
0.553694
0.553181
0.552517
0.552478
0.553095
0.553692
0.553897
0.55395
0.554003
0.55398
0.55401
0.554011
0.554029
0.553978
0.553979
0.554
0.554062
0.55403
0.554024
0.554023
0.554035
0.554013
0.554031
0.55403
0.554015
0.554019
0.554001
0.553947
0.553932
0.553884
0.553687
0.553092
0.552476
0.552415
0.552972
0.55364
0.553948
0.553993
0.554021
0.554007
0.554028
0.554036
0.554025
0.554041
0.554047
0.55409
0.554087
0.55407
0.554124
0.554126
0.554122
0.554089
0.554039
0.554096
0.554066
0.554105
0.554083
0.554032
0.554006
0.553932
0.553641
0.55297
0.552414
0.552329
0.552856
0.55348
0.553956
0.554018
0.554016
0.554033
0.554026
0.554057
0.554101
0.554119
0.554154
0.554123
0.554143
0.554107
0.554121
0.554144
0.554115
0.554149
0.554108
0.554098
0.554118
0.554083
0.554075
0.554115
0.554047
0.553986
0.553497
0.552856
0.552329
0.552228
0.552738
0.553256
0.553906
0.554022
0.554032
0.554055
0.554121
0.554128
0.554088
0.554153
0.554128
0.554157
0.55411
0.554176
0.554119
0.554117
0.554118
0.554145
0.554161
0.554144
0.554096
0.554089
0.554074
0.554064
0.554064
0.553877
0.553266
0.552739
0.552228
0.55212
0.552612
0.553085
0.553575
0.553994
0.554052
0.55412
0.554076
0.554126
0.554161
0.554087
0.554107
0.554101
0.554178
0.554125
0.554119
0.554118
0.554122
0.554119
0.554169
0.554114
0.554118
0.554099
0.554071
0.554059
0.554017
0.553579
0.553086
0.552613
0.552121
0.551999
0.552484
0.552941
0.553226
0.553594
0.55383
0.553932
0.554092
0.554002
0.554018
0.553997
0.554083
0.554012
0.553975
0.55398
0.554129
0.554076
0.554039
0.553792
0.553771
0.553671
0.553681
0.553758
0.553714
0.553432
0.553395
0.553223
0.55294
0.552484
0.552001
0.551847
0.552372
0.552807
0.553052
0.553151
0.553031
0.552969
0.553008
0.552986
0.552982
0.552985
0.553048
0.552989
0.552979
0.552999
0.553063
0.553029
0.553023
0.552997
0.552998
0.552994
0.55302
0.553021
0.552992
0.553041
0.553113
0.553046
0.552806
0.552372
0.551855
0.551765
0.552286
0.552687
0.552921
0.553021
0.552962
0.552906
0.552926
0.552903
0.552902
0.552902
0.552915
0.552906
0.552898
0.552916
0.552944
0.552946
0.552942
0.552921
0.552924
0.552919
0.552947
0.552946
0.552925
0.552973
0.553004
0.552918
0.552686
0.552286
0.551767
0.551709
0.552208
0.552587
0.552811
0.552921
0.552905
0.552871
0.552881
0.552858
0.552873
0.55286
0.552868
0.552856
0.552854
0.552862
0.552884
0.552903
0.552903
0.552887
0.552903
0.552889
0.552905
0.552909
0.552889
0.552925
0.552917
0.552812
0.552585
0.552208
0.551709
0.551655
0.552129
0.552495
0.552732
0.552843
0.552856
0.552882
0.552875
0.552888
0.55287
0.552884
0.55287
0.552884
0.552894
0.552898
0.552901
0.552912
0.552903
0.552913
0.552897
0.552921
0.552904
0.552922
0.552923
0.55289
0.552854
0.552736
0.552497
0.552129
0.551656
0.551598
0.552036
0.552395
0.552649
0.552823
0.552889
0.552934
0.552929
0.552947
0.552942
0.552949
0.552915
0.552922
0.552936
0.552931
0.552925
0.55295
0.552957
0.552993
0.552996
0.553013
0.552962
0.552988
0.552978
0.552947
0.552867
0.552653
0.552397
0.552036
0.551598
0.551535
0.551928
0.552281
0.552497
0.552802
0.552912
0.552985
0.552962
0.552986
0.55297
0.552972
0.552972
0.552969
0.552977
0.552969
0.552963
0.552987
0.553006
0.553021
0.55302
0.553031
0.553022
0.552984
0.553026
0.552972
0.552804
0.552497
0.552281
0.551928
0.551534
0.551469
0.551829
0.552169
0.552332
0.552537
0.552947
0.55293
0.552954
0.552934
0.552928
0.552949
0.552932
0.552925
0.55292
0.55294
0.55297
0.552974
0.552978
0.552976
0.552985
0.552986
0.552977
0.552982
0.552959
0.552967
0.552549
0.55231
0.552169
0.551829
0.551467
0.551405
0.551741
0.552064
0.55221
0.552207
0.552487
0.552943
0.552942
0.552922
0.552946
0.552911
0.552946
0.55294
0.552948
0.552942
0.55296
0.552936
0.552976
0.552944
0.552971
0.552944
0.552988
0.552959
0.552968
0.552536
0.552123
0.552167
0.552063
0.55174
0.551402
0.551345
0.551662
0.551965
0.552109
0.552113
0.552021
0.552292
0.552103
0.552543
0.55246
0.552549
0.552358
0.552475
0.552406
0.552394
0.552101
0.552
0.552109
0.552315
0.552243
0.552324
0.552416
0.552039
0.552071
0.551978
0.551972
0.552075
0.551964
0.551661
0.551342
0.551281
0.551594
0.551874
0.552016
0.552042
0.551994
0.551993
0.551963
0.551995
0.55198
0.551991
0.551985
0.551986
0.551968
0.551979
0.551949
0.551933
0.551956
0.551984
0.55198
0.551971
0.551962
0.551928
0.551938
0.551921
0.551948
0.551993
0.551874
0.551593
0.551278
0.551189
0.551534
0.551795
0.551933
0.551977
0.551946
0.55194
0.551921
0.551938
0.551925
0.551934
0.55193
0.551929
0.551914
0.551924
0.551898
0.551891
0.551904
0.551929
0.551926
0.551918
0.551909
0.551895
0.551894
0.551889
0.551904
0.55192
0.551796
0.551533
0.551186
0.551118
0.551479
0.551732
0.551864
0.551922
0.551907
0.551908
0.551915
0.551898
0.551898
0.5519
0.551896
0.551895
0.551887
0.551891
0.551887
0.551894
0.551887
0.551892
0.551895
0.551894
0.551892
0.55191
0.551913
0.551891
0.551868
0.551864
0.551733
0.551479
0.551118
0.551075
0.551415
0.551664
0.551829
0.551891
0.551924
0.551928
0.551947
0.551932
0.551923
0.551915
0.551918
0.551915
0.551931
0.55191
0.551916
0.551931
0.551912
0.551913
0.551926
0.551919
0.551932
0.551947
0.551939
0.551938
0.551898
0.551847
0.551667
0.551416
0.551076
0.551032
0.551336
0.551582
0.551774
0.551911
0.551952
0.551979
0.552023
0.551968
0.551975
0.551959
0.551954
0.551956
0.551964
0.55196
0.551977
0.552004
0.551963
0.551948
0.551955
0.551973
0.551989
0.552006
0.551979
0.551966
0.551938
0.551814
0.551582
0.551338
0.551033
0.550986
0.551261
0.551495
0.551646
0.551921
0.552006
0.552021
0.551972
0.552021
0.552003
0.55199
0.551985
0.551978
0.55199
0.551982
0.551977
0.551945
0.552001
0.551976
0.551988
0.551998
0.552009
0.551972
0.551989
0.551945
0.551964
0.551724
0.551498
0.551264
0.550988
0.550941
0.551194
0.551416
0.551513
0.551713
0.551964
0.551982
0.551999
0.551964
0.551969
0.551969
0.551957
0.551961
0.551943
0.551969
0.551944
0.551976
0.55195
0.551956
0.551949
0.551965
0.55196
0.55199
0.55196
0.551945
0.551932
0.551556
0.551419
0.551197
0.550943
0.550898
0.551132
0.551341
0.551424
0.551402
0.551667
0.551401
0.551706
0.551437
0.551663
0.551735
0.551766
0.551761
0.551834
0.551713
0.551956
0.551928
0.551819
0.551786
0.551775
0.551546
0.551654
0.551748
0.551607
0.551807
0.551598
0.55144
0.551344
0.551134
0.550899
0.550859
0.551076
0.551271
0.551352
0.551264
0.551243
0.551227
0.55125
0.55123
0.55125
0.551243
0.55126
0.551242
0.551258
0.551223
0.55127
0.551272
0.551233
0.551281
0.551232
0.551246
0.551244
0.551252
0.551263
0.551251
0.551278
0.551362
0.551273
0.551077
0.550859
0.550823
0.551029
0.551209
0.551289
0.551255
0.55122
0.551199
0.551209
0.551199
0.551209
0.551202
0.551216
0.5512
0.551214
0.551194
0.551224
0.55122
0.551202
0.551237
0.551204
0.551205
0.551202
0.551209
0.551222
0.551228
0.551262
0.551295
0.551209
0.551029
0.550823
0.550784
0.550989
0.551155
0.551233
0.551221
0.551191
0.551178
0.551196
0.551181
0.551193
0.551191
0.551189
0.551191
0.55119
0.551173
0.551193
0.551189
0.551177
0.551202
0.551189
0.55119
0.551188
0.551188
0.551206
0.551201
0.551228
0.551236
0.551154
0.550989
0.550785
0.550719
0.55095
0.551109
0.551187
0.551192
0.551196
0.551199
0.551179
0.551197
0.551194
0.551196
0.551198
0.551185
0.551188
0.551191
0.551188
0.551198
0.551185
0.551192
0.551187
0.551214
0.5512
0.551204
0.551208
0.551212
0.551199
0.551187
0.551108
0.550951
0.550728
0.55068
0.550909
0.551064
0.551165
0.551205
0.551223
0.551234
0.551248
0.551246
0.551255
0.551259
0.551223
0.55125
0.551233
0.551233
0.551222
0.551218
0.551218
0.55121
0.551244
0.551249
0.551256
0.55124
0.551247
0.551244
0.551215
0.551157
0.551064
0.550909
0.550681
0.550648
0.550857
0.551013
0.551143
0.551228
0.551253
0.551279
0.551234
0.55129
0.551244
0.551256
0.551275
0.55126
0.551238
0.551283
0.551232
0.551258
0.551265
0.551235
0.551272
0.551272
0.55126
0.551277
0.551255
0.551277
0.551242
0.551122
0.551013
0.550857
0.550647
0.550617
0.550801
0.55095
0.551036
0.55126
0.551278
0.551239
0.551277
0.551236
0.551273
0.551254
0.551243
0.551262
0.551238
0.551234
0.551276
0.551244
0.551245
0.551262
0.551261
0.551244
0.551274
0.551243
0.55127
0.551245
0.551254
0.551029
0.55095
0.550801
0.550616
0.550587
0.550755
0.550895
0.550936
0.551224
0.551238
0.551262
0.551233
0.551253
0.55124
0.551243
0.55126
0.551241
0.551232
0.55124
0.551238
0.551263
0.551239
0.551274
0.551245
0.551278
0.55124
0.55126
0.551253
0.551242
0.551175
0.550934
0.550894
0.550755
0.550585
0.550558
0.550712
0.550842
0.550862
0.550905
0.551123
0.551226
0.551278
0.551236
0.551267
0.551258
0.55124
0.551246
0.55126
0.551234
0.55121
0.551231
0.551255
0.551238
0.551268
0.551235
0.55121
0.551243
0.551188
0.551112
0.550815
0.550843
0.550841
0.550712
0.550556
0.550531
0.550674
0.550793
0.550746
0.550716
0.550717
0.550995
0.550933
0.551041
0.550813
0.550759
0.550807
0.550817
0.550894
0.550947
0.550752
0.550808
0.550861
0.550748
0.550766
0.550981
0.550752
0.550818
0.550741
0.55074
0.550751
0.5508
0.550794
0.550674
0.550529
0.550507
0.55064
0.550751
0.550729
0.550707
0.550691
0.550718
0.550736
0.550749
0.550735
0.55071
0.550729
0.55073
0.550757
0.550751
0.550723
0.55073
0.550735
0.550718
0.55073
0.550752
0.550724
0.550744
0.550717
0.550717
0.55074
0.550765
0.550752
0.550641
0.550505
0.550484
0.550612
0.550714
0.550707
0.550689
0.550685
0.550694
0.550709
0.55072
0.550709
0.550696
0.550703
0.550712
0.55073
0.550723
0.550703
0.550704
0.550708
0.550702
0.550705
0.550724
0.550706
0.550717
0.550697
0.5507
0.550717
0.550735
0.550715
0.550613
0.550482
0.550453
0.550588
0.550683
0.550689
0.550689
0.550687
0.55068
0.550694
0.550699
0.550705
0.5507
0.550709
0.550706
0.550711
0.550706
0.55072
0.550707
0.550715
0.550707
0.550719
0.550706
0.550714
0.550698
0.55071
0.550703
0.550707
0.55071
0.550684
0.550588
0.55045
0.550416
0.550561
0.550658
0.550695
0.550703
0.550722
0.550689
0.550693
0.550706
0.550717
0.550731
0.550719
0.550733
0.550721
0.550722
0.55073
0.550737
0.550726
0.550747
0.550725
0.550721
0.550727
0.550718
0.55073
0.550736
0.550725
0.550702
0.550657
0.550561
0.550415
0.550394
0.550527
0.550625
0.550716
0.550742
0.550729
0.550715
0.550724
0.550719
0.550757
0.550762
0.550766
0.550747
0.550737
0.550732
0.550773
0.550751
0.550774
0.550753
0.550773
0.550729
0.550788
0.550729
0.550772
0.550737
0.550739
0.550714
0.550624
0.550527
0.550394
0.550374
0.550492
0.550584
0.55074
0.550726
0.550725
0.550734
0.550722
0.550765
0.550751
0.550764
0.550745
0.550768
0.550752
0.550776
0.550733
0.550764
0.550747
0.550761
0.550744
0.550789
0.550734
0.550791
0.550742
0.550749
0.550748
0.550716
0.550583
0.550492
0.550374
0.550354
0.550462
0.550547
0.55071
0.550729
0.550714
0.550716
0.550745
0.550733
0.550749
0.550742
0.550753
0.550736
0.550746
0.550731
0.550763
0.550734
0.550759
0.550735
0.550761
0.55074
0.550758
0.550732
0.550751
0.550732
0.550739
0.550666
0.550546
0.550462
0.550354
0.550335
0.550434
0.550512
0.550601
0.550701
0.550729
0.550711
0.550709
0.550728
0.550738
0.550758
0.55074
0.550753
0.550736
0.550745
0.550729
0.550768
0.55073
0.550766
0.550732
0.550756
0.550729
0.550743
0.550727
0.550757
0.550735
0.550552
0.550512
0.550434
0.550335
0.550317
0.550408
0.550479
0.550472
0.55055
0.550704
0.550713
0.550606
0.550603
0.550629
0.550581
0.550603
0.550545
0.550507
0.550559
0.550665
0.550551
0.550609
0.550595
0.550666
0.550546
0.550666
0.550583
0.550669
0.55066
0.550581
0.550459
0.550479
0.550408
0.550317
0.5503
0.550384
0.55045
0.550426
0.55041
0.550517
0.550426
0.550415
0.550412
0.550419
0.550413
0.550408
0.550411
0.550405
0.55041
0.550412
0.550416
0.55041
0.550413
0.550415
0.550411
0.550406
0.550411
0.550402
0.550406
0.550407
0.55042
0.55045
0.550384
0.5503
0.550285
0.550363
0.550424
0.55041
0.550397
0.55041
0.550393
0.550396
0.550396
0.550401
0.550396
0.550391
0.550393
0.55039
0.550392
0.550394
0.550397
0.550392
0.550394
0.550396
0.550393
0.550388
0.550393
0.550384
0.550387
0.550396
0.55041
0.550424
0.550363
0.550285
0.550271
0.550345
0.550401
0.550396
0.550386
0.550393
0.550386
0.550389
0.550386
0.550395
0.55039
0.55039
0.550391
0.550391
0.55039
0.550388
0.550383
0.550385
0.55038
0.550386
0.550381
0.550384
0.550383
0.550383
0.550382
0.550385
0.550396
0.550401
0.550345
0.550271
0.550258
0.550329
0.550381
0.550384
0.55039
0.550386
0.55039
0.550386
0.550394
0.550391
0.550403
0.550391
0.550404
0.550392
0.550402
0.550392
0.550392
0.550384
0.55039
0.550382
0.550393
0.550387
0.550394
0.550379
0.550393
0.550381
0.550384
0.550381
0.550329
0.550258
0.550243
0.550316
0.550365
0.550392
0.550401
0.550398
0.55041
0.550418
0.55041
0.550419
0.550404
0.550432
0.550406
0.550433
0.550413
0.55042
0.550393
0.550414
0.550387
0.550406
0.550391
0.550426
0.550394
0.550423
0.550408
0.550401
0.550387
0.550366
0.550316
0.550243
0.550221
0.550296
0.55035
0.550406
0.550431
0.55041
0.550434
0.550413
0.550433
0.550407
0.550431
0.550412
0.55043
0.550409
0.550426
0.550404
0.55043
0.550405
0.55043
0.550408
0.550427
0.550401
0.550426
0.5504
0.550421
0.550409
0.550399
0.550348
0.550295
0.550221
0.550206
0.550273
0.550321
0.55042
0.550414
0.550426
0.55041
0.550429
0.550413
0.550432
0.55041
0.550419
0.550408
0.550424
0.550407
0.550423
0.550405
0.550425
0.550402
0.550432
0.550401
0.550414
0.550401
0.550415
0.550404
0.550423
0.550408
0.55032
0.550273
0.550206
0.550193
0.550255
0.550299
0.550389
0.550415
0.550405
0.550417
0.550413
0.550426
0.550417
0.550436
0.550416
0.550434
0.550412
0.550434
0.550411
0.550418
0.55041
0.550421
0.550406
0.55042
0.550404
0.550423
0.550404
0.550421
0.550402
0.550401
0.550299
0.550255
0.550193
0.55018
0.550238
0.550279
0.550301
0.550396
0.550415
0.550408
0.550427
0.550415
0.550438
0.550416
0.550448
0.550416
0.550443
0.550411
0.550437
0.550412
0.550431
0.55041
0.550426
0.550406
0.550445
0.550405
0.550439
0.550402
0.550399
0.550322
0.550278
0.550238
0.55018
0.550168
0.550222
0.55026
0.550277
0.55038
0.550331
0.550346
0.550362
0.550363
0.550343
0.55041
0.5504
0.550424
0.550408
0.550412
0.550399
0.550437
0.550408
0.550435
0.550378
0.550434
0.550399
0.550433
0.550392
0.550374
0.550286
0.550276
0.550259
0.550222
0.550168
0.550157
0.550207
0.550242
0.550256
0.550266
0.550267
0.550268
0.550269
0.550268
0.550268
0.55027
0.550271
0.550271
0.550277
0.550271
0.550271
0.550283
0.550293
0.550301
0.550269
0.550275
0.55027
0.550272
0.550269
0.550267
0.550263
0.550256
0.550242
0.550207
0.550157
0.550147
0.550194
0.550226
0.550239
0.550245
0.550247
0.550247
0.550248
0.550248
0.550248
0.550248
0.550248
0.550248
0.550248
0.550248
0.550248
0.550248
0.550249
0.550248
0.550248
0.550248
0.550248
0.550248
0.550248
0.550246
0.550244
0.550239
0.550226
0.550194
0.550147
0.550137
0.550181
0.55021
0.550222
0.550227
0.550229
0.550229
0.55023
0.55023
0.55023
0.55023
0.55023
0.55023
0.55023
0.55023
0.55023
0.55023
0.55023
0.55023
0.55023
0.55023
0.55023
0.55023
0.550229
0.550229
0.550227
0.550222
0.55021
0.550181
0.550137
0.550128
0.550168
0.550196
0.550207
0.550211
0.550213
0.550213
0.550213
0.550213
0.550213
0.550213
0.550213
0.550213
0.550213
0.550213
0.550213
0.550213
0.550213
0.550213
0.550213
0.550213
0.550213
0.550213
0.550213
0.550213
0.550211
0.550207
0.550196
0.550168
0.550128
0.550119
0.550157
0.550182
0.550192
0.550196
0.550198
0.550198
0.550198
0.550198
0.550198
0.550198
0.550198
0.550198
0.550198
0.550198
0.550198
0.550198
0.550198
0.550198
0.550198
0.550198
0.550198
0.550198
0.550198
0.550198
0.550196
0.550192
0.550182
0.550157
0.550119
0.550111
0.550146
0.55017
0.550179
0.550182
0.550183
0.550184
0.550184
0.550184
0.550184
0.550184
0.550184
0.550184
0.550184
0.550184
0.550184
0.550184
0.550184
0.550184
0.550184
0.550184
0.550184
0.550184
0.550184
0.550184
0.550182
0.550179
0.55017
0.550146
0.55011
0.550103
0.550136
0.550158
0.550166
0.550169
0.55017
0.55017
0.55017
0.55017
0.55017
0.55017
0.55017
0.55017
0.55017
0.55017
0.55017
0.55017
0.55017
0.55017
0.550171
0.550171
0.550171
0.550171
0.55017
0.55017
0.550169
0.550166
0.550158
0.550136
0.550103
0.550095
0.550126
0.550146
0.550154
0.550157
0.550157
0.550158
0.550158
0.550158
0.550158
0.550158
0.550158
0.550158
0.550158
0.550158
0.550158
0.550158
0.550158
0.550158
0.550158
0.550158
0.550158
0.550158
0.550158
0.550157
0.550157
0.550154
0.550146
0.550126
0.550095
0.550088
0.550117
0.550135
0.550142
0.550145
0.550145
0.550146
0.550146
0.550146
0.550146
0.550146
0.550146
0.550146
0.550146
0.550146
0.550146
0.550146
0.550146
0.550146
0.550146
0.550146
0.550146
0.550146
0.550146
0.550145
0.550145
0.550142
0.550135
0.550117
0.550088
0.550081
0.550108
0.550125
0.550131
0.550133
0.550134
0.550134
0.550134
0.550134
0.550134
0.550134
0.550134
0.550134
0.550134
0.550134
0.550134
0.550134
0.550134
0.550134
0.550134
0.550134
0.550134
0.550134
0.550134
0.550134
0.550133
0.550131
0.550125
0.550108
0.550081
0.550075
0.550099
0.550115
0.55012
0.550122
0.550123
0.550123
0.550123
0.550123
0.550123
0.550123
0.550123
0.550123
0.550123
0.550123
0.550123
0.550123
0.550123
0.550123
0.550123
0.550123
0.550123
0.550123
0.550123
0.550123
0.550122
0.55012
0.550115
0.550099
0.550075
0.550068
0.550091
0.550105
0.55011
0.550112
0.550111
0.550111
0.550111
0.550111
0.550111
0.550111
0.550111
0.550111
0.550111
0.550111
0.550111
0.550111
0.550111
0.550111
0.550111
0.550111
0.550111
0.550111
0.550111
0.550111
0.550111
0.55011
0.550105
0.550091
0.550069
0.550062
0.550083
0.550096
0.5501
0.550101
0.550101
0.550101
0.550101
0.550101
0.550101
0.550101
0.550101
0.550101
0.550101
0.550101
0.550101
0.550101
0.550101
0.550101
0.550101
0.550101
0.550101
0.550101
0.550101
0.550101
0.550101
0.5501
0.550096
0.550083
0.550062
0.550057
0.550075
0.550087
0.550091
0.550092
0.550092
0.550092
0.550091
0.550091
0.550091
0.550091
0.550091
0.550091
0.550091
0.550091
0.550091
0.550091
0.550091
0.550091
0.550091
0.550091
0.550091
0.550091
0.550092
0.550092
0.550092
0.550091
0.550087
0.550075
0.550057
0.55005
0.550068
0.550079
0.550082
0.550083
0.550083
0.550083
0.550083
0.550083
0.550083
0.550083
0.550083
0.550083
0.550082
0.550082
0.550082
0.550082
0.550082
0.550082
0.550082
0.550083
0.550083
0.550083
0.550083
0.550083
0.550083
0.550082
0.550079
0.550068
0.55005
0.550045
0.550062
0.550072
0.550075
0.550075
0.550075
0.550075
0.550075
0.550074
0.550074
0.550074
0.550074
0.550074
0.550074
0.550074
0.550074
0.550074
0.550074
0.550074
0.550074
0.550074
0.550074
0.550075
0.550075
0.550075
0.550075
0.550074
0.550072
0.550062
0.550045
0.550041
0.550056
0.550065
0.550067
0.550067
0.550067
0.550067
0.550067
0.550067
0.550067
0.550067
0.550067
0.550066
0.550066
0.550066
0.550066
0.550066
0.550066
0.550066
0.550066
0.550067
0.550067
0.550067
0.550067
0.550067
0.550067
0.550067
0.550065
0.550056
0.550041
0.550036
0.55005
0.550058
0.55006
0.55006
0.55006
0.55006
0.550059
0.550059
0.550059
0.550059
0.550059
0.550059
0.550059
0.550059
0.550059
0.550059
0.550059
0.550059
0.550059
0.550059
0.550059
0.550059
0.55006
0.55006
0.55006
0.55006
0.550058
0.55005
0.550036
0.550032
0.550044
0.550051
0.550053
0.550053
0.550053
0.550053
0.550052
0.550052
0.550052
0.550052
0.550052
0.550052
0.550052
0.550052
0.550052
0.550052
0.550052
0.550052
0.550052
0.550052
0.550052
0.550052
0.550053
0.550053
0.550053
0.550053
0.550051
0.550044
0.550032
0.550027
0.550039
0.550045
0.550046
0.550047
0.550046
0.550046
0.550046
0.550046
0.550046
0.550046
0.550045
0.550045
0.550045
0.550045
0.550045
0.550045
0.550045
0.550045
0.550045
0.550046
0.550046
0.550046
0.550046
0.550046
0.550047
0.550046
0.550045
0.550039
0.550027
0.550023
0.550033
0.550039
0.55004
0.55004
0.55004
0.55004
0.550039
0.550039
0.550039
0.550039
0.550039
0.550039
0.550039
0.550039
0.550039
0.550039
0.550039
0.550039
0.550039
0.550039
0.550039
0.550039
0.55004
0.55004
0.55004
0.55004
0.550039
0.550033
0.550023
0.550019
0.550028
0.550033
0.550034
0.550033
0.550033
0.550032
0.550032
0.550031
0.550032
0.550031
0.550031
0.550031
0.550031
0.550031
0.550031
0.550031
0.550031
0.550031
0.550031
0.550031
0.550031
0.550032
0.550032
0.550033
0.550033
0.550034
0.550033
0.550028
0.550019
0.550014
0.550022
0.550026
0.550026
0.550025
0.550024
0.550023
0.550023
0.550023
0.550023
0.550023
0.550023
0.550023
0.550023
0.550023
0.550023
0.550023
0.550023
0.550023
0.550023
0.550023
0.550023
0.550023
0.550023
0.550024
0.550025
0.550026
0.550026
0.550022
0.550014
0.55001
0.550016
0.55002
0.550019
0.550018
0.550017
0.550016
0.550016
0.550016
0.550016
0.550016
0.550016
0.550016
0.550016
0.550016
0.550016
0.550016
0.550016
0.550016
0.550016
0.550016
0.550016
0.550016
0.550016
0.550017
0.550018
0.550019
0.55002
0.550016
0.55001
0.550003
0.55001
0.550012
0.550012
0.55001
0.550009
0.550008
0.550008
0.550007
0.550007
0.550007
0.550007
0.550007
0.550007
0.550007
0.550007
0.550007
0.550007
0.550007
0.550007
0.550007
0.550007
0.550008
0.550008
0.550009
0.55001
0.550012
0.550013
0.55001
0.550003
0.549996
0.550002
0.550003
0.550002
0.549999
0.549998
0.549997
0.549996
0.549996
0.549996
0.549995
0.549995
0.549995
0.549995
0.549995
0.549995
0.549995
0.549995
0.549995
0.549995
0.549996
0.549996
0.549996
0.549997
0.549998
0.55
0.550002
0.550003
0.550002
0.549996
0.549986
0.54999
0.549989
0.549986
0.549982
0.549979
0.549978
0.549977
0.549976
0.549976
0.549976
0.549976
0.549976
0.549976
0.549976
0.549976
0.549976
0.549976
0.549976
0.549976
0.549976
0.549976
0.549977
0.549978
0.549979
0.549982
0.549986
0.549989
0.54999
0.549986
0.549968
0.549969
0.549965
0.549957
0.54995
0.549945
0.549942
0.54994
0.549939
0.549939
0.549938
0.549938
0.549938
0.549938
0.549938
0.549938
0.549938
0.549938
0.549938
0.549938
0.549939
0.549939
0.54994
0.549942
0.549945
0.54995
0.549957
0.549965
0.549969
0.549968
0.549934
0.549929
0.549917
0.549901
0.549887
0.549877
0.549871
0.549868
0.549866
0.549866
0.549865
0.549865
0.549865
0.549865
0.549865
0.549865
0.549865
0.549865
0.549865
0.549865
0.549866
0.549866
0.549868
0.549871
0.549877
0.549887
0.549901
0.549917
0.549929
0.549934
0.549864
0.549851
0.549823
0.549792
0.549766
0.549747
0.549736
0.54973
0.549727
0.549726
0.549725
0.549725
0.549725
0.549725
0.549725
0.549725
0.549725
0.549725
0.549725
0.549725
0.549726
0.549727
0.54973
0.549736
0.549747
0.549766
0.549792
0.549823
0.549851
0.549864
0.549727
0.549702
0.549646
0.549587
0.549539
0.549505
0.549485
0.549474
0.549469
0.549466
0.549465
0.549465
0.549464
0.549464
0.549464
0.549464
0.549464
0.549464
0.549465
0.549465
0.549466
0.549469
0.549474
0.549485
0.549505
0.549539
0.549587
0.549646
0.549702
0.549727
0.549463
0.549425
0.549321
0.549214
0.549127
0.549067
0.549032
0.549014
0.549005
0.549001
0.549
0.548999
0.548998
0.548998
0.548998
0.548998
0.548998
0.548998
0.548999
0.549
0.549001
0.549005
0.549014
0.549032
0.549067
0.549127
0.549214
0.549321
0.549425
0.549463
0.548964
0.548924
0.548735
0.548548
0.548397
0.548298
0.548242
0.548213
0.5482
0.548194
0.548191
0.54819
0.54819
0.548189
0.548189
0.548189
0.548189
0.54819
0.54819
0.548191
0.548194
0.5482
0.548213
0.548242
0.548298
0.548397
0.548548
0.548735
0.548924
0.548964
0.548032
0.548016
0.547684
0.547364
0.547116
0.546962
0.546879
0.546839
0.54682
0.546812
0.546809
0.546807
0.546806
0.546806
0.546806
0.546806
0.546806
0.546806
0.546807
0.546809
0.546812
0.54682
0.546839
0.546879
0.546962
0.547116
0.547364
0.547684
0.548016
0.548032
0.546216
0.546264
0.545675
0.545139
0.544756
0.544538
0.544429
0.544379
0.544357
0.544348
0.544344
0.544342
0.544341
0.544341
0.544341
0.544341
0.544341
0.544341
0.544342
0.544344
0.544348
0.544357
0.544379
0.544429
0.544538
0.544756
0.545139
0.545675
0.546264
0.546216
0.543031
0.542651
0.541382
0.54049
0.539954
0.539688
0.539568
0.539517
0.539496
0.539487
0.539483
0.539482
0.539481
0.53948
0.53948
0.53948
0.53948
0.539481
0.539482
0.539483
0.539487
0.539496
0.539517
0.539568
0.539688
0.539954
0.54049
0.541382
0.542651
0.543031
0.524994
0.518759
0.515873
0.514636
0.514129
0.513969
0.513924
0.513917
0.51392
0.513925
0.513929
0.513932
0.513934
0.513936
0.513936
0.513936
0.513936
0.513934
0.513932
0.513929
0.513925
0.51392
0.513917
0.513924
0.513969
0.514129
0.514636
0.515873
0.518759
0.524993
0.474614
0.469687
0.47029
0.470052
0.469568
0.469108
0.46876
0.468516
0.468346
0.468227
0.468142
0.468083
0.468043
0.468018
0.468006
0.468006
0.468018
0.468043
0.468084
0.468143
0.468227
0.468347
0.468517
0.468761
0.46911
0.469571
0.470056
0.470295
0.469697
0.474626
0.0901552
0.0941797
0.0962884
0.0966765
0.0969567
0.0972118
0.0974187
0.0975699
0.0976774
0.0977537
0.0978078
0.0978458
0.0978716
0.0978876
0.0978953
0.0978953
0.0978876
0.0978715
0.0978456
0.0978075
0.0977532
0.0976767
0.0975688
0.0974174
0.0972102
0.0969547
0.0966735
0.0962828
0.0941702
0.0901455
0.00100177
0.00161885
0.0016193
0.00158635
0.00156537
0.00155781
0.0015562
0.00155744
0.00155996
0.00156283
0.00156548
0.00156767
0.0015693
0.00157036
0.00157089
0.00157089
0.00157036
0.00156929
0.00156765
0.00156545
0.00156278
0.0015599
0.00155736
0.00155609
0.00155768
0.00156521
0.00158609
0.00161878
0.00161791
0.00100115
3.02997e-07
1.07977e-06
1.11513e-06
1.06229e-06
1.00936e-06
9.79253e-07
9.62448e-07
9.54848e-07
9.52813e-07
9.53697e-07
9.55732e-07
9.57912e-07
9.59744e-07
9.61019e-07
9.61665e-07
9.6166e-07
9.61005e-07
9.59717e-07
9.57869e-07
9.55666e-07
9.53599e-07
9.52673e-07
9.54655e-07
9.62194e-07
9.7893e-07
1.00894e-06
1.06168e-06
1.11409e-06
1.07811e-06
3.02709e-07
2.16343e-12
1.14444e-11
1.45032e-11
1.49584e-11
1.45771e-11
1.42444e-11
1.40321e-11
1.39406e-11
1.39353e-11
1.39772e-11
1.40357e-11
1.40926e-11
1.41388e-11
1.41704e-11
1.41863e-11
1.41862e-11
1.41702e-11
1.41383e-11
1.40918e-11
1.40344e-11
1.39751e-11
1.39322e-11
1.39361e-11
1.4026e-11
1.42363e-11
1.45661e-11
1.49423e-11
1.44791e-11
1.14147e-11
2.1591e-12
1.35999e-17
8.34556e-17
1.22476e-16
1.40468e-16
1.46849e-16
1.49478e-16
1.50833e-16
1.5199e-16
1.53205e-16
1.54416e-16
1.55508e-16
1.56405e-16
1.57076e-16
1.57519e-16
1.57737e-16
1.57737e-16
1.57517e-16
1.57074e-16
1.56399e-16
1.55497e-16
1.54398e-16
1.53176e-16
1.51946e-16
1.5077e-16
1.49395e-16
1.46738e-16
1.40318e-16
1.22278e-16
8.32475e-17
1.35634e-17
7.4145e-23
5.35714e-22
8.95107e-22
1.12602e-21
1.25448e-21
1.3292e-21
1.37548e-21
1.40806e-21
1.43318e-21
1.4531e-21
1.46868e-21
1.48043e-21
1.48879e-21
1.49415e-21
1.49675e-21
1.49676e-21
1.49416e-21
1.48881e-21
1.48044e-21
1.46867e-21
1.45305e-21
1.43304e-21
1.40781e-21
1.37508e-21
1.32864e-21
1.25375e-21
1.12507e-21
8.93911e-22
5.34529e-22
7.39106e-23
3.55912e-28
2.97107e-27
5.55117e-27
7.56548e-27
8.92026e-27
9.81483e-27
1.04115e-26
1.08298e-26
1.11345e-26
1.13597e-26
1.15253e-26
1.16446e-26
1.17269e-26
1.17785e-26
1.18035e-26
1.18036e-26
1.1779e-26
1.17277e-26
1.16456e-26
1.15265e-26
1.13609e-26
1.11356e-26
1.08305e-26
1.04115e-26
9.81414e-27
8.91874e-27
7.56277e-27
5.54672e-27