/*--------------------------------*- C++ -*----------------------------------*\
| =========                 |                                                 |
| \\      /  F ield         | OpenFOAM: The Open Source CFD Toolbox           |
|  \\    /   O peration     | Version:  2312                                  |
|   \\  /    A nd           | Website:  www.openfoam.com                      |
|    \\/     M anipulation  |                                                 |
\*---------------------------------------------------------------------------*/
FoamFile
{
    version     2.0;
    format      ascii;
    arch        "LSB;label=32;scalar=64";
    class       volScalarField;
    location    "0.01";
    object      alpha.particles_0;
}
// * * * * * * * * * * * * * * * * * * * * * * * * * * * * * * * * * * * * * //

dimensions      [0 0 0 0 0 0 0];

internalField   nonuniform List<scalar> 
6000
(
0.527635
0.517725
0.51553
0.514809
0.514105
0.513723
0.513505
0.513371
0.513283
0.513222
0.513178
0.513148
0.513128
0.513115
0.513109
0.513109
0.513115
0.513128
0.513148
0.513178
0.513221
0.513283
0.513371
0.513505
0.513723
0.514105
0.514809
0.51553
0.517725
0.527635
0.534699
0.531974
0.529742
0.528075
0.527055
0.526566
0.526355
0.526266
0.526229
0.526211
0.526202
0.526197
0.526193
0.526191
0.52619
0.52619
0.526191
0.526194
0.526197
0.526203
0.526212
0.526229
0.526266
0.526354
0.526566
0.527055
0.528075
0.529742
0.531974
0.534699
0.544995
0.546753
0.545952
0.544842
0.54407
0.543645
0.543456
0.543383
0.543361
0.543356
0.543359
0.543361
0.543363
0.543365
0.543366
0.543366
0.543365
0.543364
0.543361
0.543359
0.543357
0.543362
0.543383
0.543456
0.543645
0.54407
0.544842
0.545952
0.546753
0.544994
0.549568
0.550992
0.551072
0.550776
0.550448
0.550216
0.550087
0.55003
0.550005
0.549995
0.549993
0.54999
0.549991
0.549992
0.549992
0.549991
0.549992
0.549992
0.549993
0.549996
0.549997
0.550006
0.550031
0.550088
0.550214
0.550446
0.550776
0.551071
0.550991
0.549567
0.551218
0.55208
0.552365
0.552378
0.552294
0.552216
0.552151
0.552129
0.552111
0.552106
0.552102
0.552098
0.5521
0.552095
0.552097
0.552097
0.552099
0.552098
0.552104
0.55211
0.552108
0.552114
0.552132
0.552153
0.55221
0.552293
0.552375
0.552363
0.552081
0.551217
0.551923
0.552629
0.552988
0.553113
0.553137
0.553135
0.553126
0.553125
0.553118
0.553117
0.553121
0.553114
0.553118
0.553106
0.553108
0.553106
0.553113
0.553108
0.553115
0.553128
0.553122
0.553126
0.55313
0.55313
0.553135
0.553145
0.553108
0.552987
0.552633
0.551923
0.552231
0.55294
0.553323
0.553491
0.553539
0.553567
0.553586
0.553596
0.553594
0.553598
0.553604
0.553604
0.553611
0.553606
0.553605
0.553583
0.553604
0.553601
0.553601
0.553616
0.553614
0.553608
0.553608
0.553595
0.553574
0.553544
0.553482
0.55332
0.552945
0.552233
0.552371
0.553091
0.553497
0.553629
0.553673
0.553703
0.553701
0.553739
0.553699
0.553729
0.553725
0.553726
0.553745
0.553749
0.553752
0.553726
0.553748
0.553736
0.553739
0.553739
0.553751
0.553733
0.553742
0.55371
0.553695
0.553683
0.553624
0.553487
0.553092
0.552373
0.552432
0.553131
0.553576
0.553699
0.553721
0.553774
0.553746
0.553782
0.553766
0.55378
0.553794
0.553795
0.553801
0.553826
0.553797
0.553812
0.553826
0.553817
0.553825
0.553811
0.553811
0.553803
0.553821
0.553791
0.553774
0.553755
0.553693
0.553568
0.553129
0.552432
0.552442
0.553106
0.553611
0.553723
0.553782
0.553782
0.553783
0.553821
0.553829
0.553856
0.553866
0.553868
0.553858
0.553832
0.553863
0.553847
0.553882
0.553865
0.553898
0.553841
0.553872
0.553846
0.553856
0.553834
0.553838
0.5538
0.553749
0.553606
0.553103
0.55244
0.552401
0.553014
0.553606
0.553782
0.553848
0.553819
0.553913
0.553866
0.553948
0.553951
0.553913
0.553919
0.55392
0.553883
0.553936
0.553898
0.553912
0.553911
0.553938
0.55395
0.553944
0.553928
0.55389
0.553873
0.553882
0.553839
0.553799
0.5536
0.55301
0.552399
0.552338
0.552889
0.553556
0.553846
0.553906
0.553902
0.553934
0.55397
0.553966
0.553962
0.553941
0.55393
0.553976
0.55395
0.554021
0.553946
0.553937
0.553945
0.553954
0.553973
0.554013
0.553945
0.553929
0.553897
0.553883
0.553882
0.553838
0.553555
0.552887
0.552337
0.552253
0.552773
0.553391
0.553865
0.553905
0.553989
0.553939
0.553992
0.553964
0.553968
0.55397
0.553965
0.553973
0.554092
0.553973
0.554068
0.554029
0.554042
0.554001
0.554021
0.553998
0.554026
0.554007
0.554013
0.553952
0.553923
0.55387
0.55341
0.552772
0.552253
0.552154
0.552655
0.553163
0.553819
0.55392
0.55394
0.553952
0.553971
0.553968
0.553973
0.55401
0.55403
0.554032
0.55403
0.554025
0.55403
0.554062
0.554045
0.554053
0.554012
0.554024
0.553987
0.554019
0.554001
0.553994
0.553957
0.553788
0.553173
0.552655
0.552154
0.552049
0.55253
0.552991
0.553474
0.553945
0.553929
0.55397
0.553959
0.554008
0.554016
0.554009
0.554028
0.554051
0.55403
0.554025
0.554035
0.554054
0.554047
0.554069
0.554065
0.554002
0.554028
0.553997
0.554001
0.554016
0.553913
0.553481
0.552992
0.552531
0.552049
0.55193
0.552404
0.552849
0.553119
0.553414
0.553614
0.553752
0.553856
0.553853
0.553818
0.55383
0.553942
0.553812
0.553843
0.55382
0.553937
0.55383
0.553803
0.553589
0.553546
0.553503
0.553432
0.553518
0.5535
0.553174
0.553272
0.553117
0.552847
0.552404
0.551933
0.551779
0.552294
0.552716
0.55295
0.553034
0.552926
0.55288
0.552905
0.552864
0.552896
0.552872
0.552887
0.552869
0.552841
0.552874
0.552905
0.552919
0.55292
0.552874
0.552931
0.552878
0.552929
0.552924
0.552877
0.552941
0.552999
0.552944
0.552715
0.552294
0.551787
0.551699
0.552211
0.552599
0.552823
0.552914
0.552855
0.552806
0.552826
0.552786
0.552817
0.552793
0.552805
0.55279
0.552764
0.552795
0.552822
0.552841
0.552841
0.552803
0.552856
0.552808
0.552856
0.552852
0.552817
0.552873
0.552897
0.552819
0.552598
0.55221
0.551701
0.551645
0.552135
0.552503
0.552716
0.552819
0.552802
0.552784
0.552782
0.552764
0.552764
0.552755
0.552757
0.55275
0.552745
0.552753
0.552772
0.552798
0.552794
0.552789
0.552801
0.552797
0.552804
0.55281
0.552801
0.552817
0.552814
0.552717
0.552501
0.552135
0.551646
0.551594
0.552058
0.552414
0.552642
0.552745
0.552756
0.552774
0.55279
0.552789
0.552784
0.552786
0.552789
0.552789
0.552791
0.5528
0.55282
0.552824
0.552819
0.552822
0.552798
0.55282
0.552828
0.552828
0.552821
0.552795
0.552756
0.552645
0.552415
0.552058
0.551594
0.551539
0.551966
0.552315
0.552563
0.552731
0.552784
0.552838
0.552826
0.552874
0.552821
0.552865
0.552823
0.552849
0.552868
0.552858
0.552855
0.552877
0.552857
0.552898
0.552839
0.552917
0.552851
0.552885
0.552901
0.552845
0.552777
0.552566
0.552317
0.551967
0.551539
0.551478
0.55186
0.552202
0.55241
0.552719
0.552806
0.552879
0.552873
0.552864
0.552879
0.552869
0.552884
0.552872
0.552882
0.55289
0.552893
0.552871
0.552906
0.552903
0.552909
0.552914
0.552915
0.552901
0.552912
0.552892
0.552718
0.552411
0.552202
0.55186
0.551477
0.551414
0.551762
0.552091
0.552244
0.552444
0.552872
0.552842
0.552845
0.55284
0.552821
0.552843
0.552812
0.552828
0.552828
0.552845
0.552847
0.552883
0.552865
0.552854
0.552896
0.552872
0.552871
0.552883
0.552863
0.552879
0.55246
0.552221
0.552091
0.551762
0.551412
0.551352
0.551676
0.551987
0.552124
0.552109
0.552373
0.552853
0.552856
0.552824
0.55286
0.552804
0.552858
0.552824
0.552844
0.552836
0.552862
0.552785
0.552872
0.552873
0.55287
0.55287
0.552908
0.552861
0.552869
0.552424
0.552027
0.55208
0.551987
0.551675
0.55135
0.551294
0.551599
0.55189
0.552026
0.552021
0.551932
0.552122
0.551953
0.552385
0.552281
0.552392
0.552185
0.552312
0.552245
0.552222
0.551958
0.5519
0.551972
0.552146
0.55209
0.552147
0.552245
0.5519
0.551936
0.551894
0.551899
0.551991
0.55189
0.551598
0.551292
0.551233
0.551534
0.551802
0.551935
0.551955
0.551907
0.551912
0.551869
0.551902
0.551903
0.55191
0.551899
0.551903
0.55188
0.551899
0.551846
0.551836
0.551856
0.551896
0.5519
0.5519
0.551895
0.551843
0.551845
0.551839
0.551868
0.551912
0.551802
0.551532
0.55123
0.55114
0.551475
0.551726
0.551855
0.551894
0.551861
0.55186
0.55184
0.551848
0.551849
0.551854
0.551847
0.551849
0.551828
0.551845
0.551815
0.551805
0.551812
0.551843
0.551848
0.551847
0.551843
0.55182
0.551811
0.551811
0.551825
0.551842
0.551726
0.551474
0.551137
0.551071
0.551422
0.551665
0.551789
0.551842
0.55183
0.551828
0.551839
0.55182
0.551816
0.55182
0.55182
0.551813
0.551807
0.551808
0.551822
0.551838
0.551831
0.551819
0.551819
0.551815
0.551819
0.551827
0.55183
0.551816
0.551792
0.551789
0.551666
0.551422
0.551071
0.551029
0.55136
0.551599
0.551758
0.551814
0.551864
0.551859
0.551882
0.551854
0.551844
0.551849
0.551846
0.551845
0.551838
0.551841
0.551866
0.551872
0.551859
0.551844
0.551845
0.551839
0.551835
0.551875
0.551877
0.551858
0.551823
0.551777
0.551602
0.551361
0.55103
0.550988
0.551281
0.551518
0.551706
0.55184
0.551886
0.551891
0.551938
0.551897
0.551888
0.551878
0.551883
0.551879
0.551898
0.551873
0.551888
0.551913
0.551891
0.551877
0.551894
0.551883
0.551897
0.551922
0.551893
0.551903
0.551852
0.551746
0.551518
0.551283
0.550989
0.550944
0.551208
0.551432
0.551578
0.551856
0.551914
0.551936
0.551889
0.551929
0.551924
0.551908
0.551903
0.551909
0.55191
0.551913
0.551892
0.551859
0.551872
0.551903
0.5519
0.551918
0.551927
0.551886
0.55191
0.551853
0.551914
0.551658
0.551435
0.551211
0.550946
0.550901
0.551142
0.551355
0.551445
0.551644
0.551875
0.551884
0.551911
0.551882
0.551884
0.551875
0.551876
0.551874
0.55188
0.551869
0.551869
0.551889
0.551873
0.55188
0.551891
0.551885
0.551895
0.551908
0.551853
0.551896
0.551848
0.551488
0.551358
0.551145
0.550902
0.55086
0.551082
0.551282
0.551358
0.551331
0.551583
0.551346
0.551593
0.551367
0.551555
0.551631
0.551671
0.551644
0.551701
0.551652
0.551814
0.551808
0.551738
0.551656
0.551636
0.551462
0.551535
0.551646
0.551554
0.551697
0.551507
0.551374
0.551284
0.551084
0.55086
0.550822
0.551028
0.551214
0.551289
0.551212
0.551188
0.55117
0.551212
0.551175
0.551204
0.5512
0.551189
0.551198
0.551202
0.55116
0.551209
0.551199
0.551167
0.551216
0.551193
0.551177
0.551193
0.551188
0.551192
0.55119
0.551218
0.551299
0.551215
0.551029
0.550822
0.550787
0.550983
0.551154
0.551228
0.551195
0.551159
0.551139
0.55117
0.551142
0.551163
0.551159
0.551148
0.551157
0.551159
0.551131
0.551164
0.551155
0.551144
0.551173
0.551153
0.551142
0.551153
0.551147
0.551151
0.551167
0.551201
0.551234
0.551154
0.550983
0.550787
0.55075
0.550944
0.551102
0.551175
0.55116
0.551133
0.551123
0.551138
0.551125
0.551141
0.551135
0.551132
0.551143
0.551131
0.551115
0.55113
0.551129
0.551125
0.551144
0.551141
0.55113
0.55114
0.551131
0.551129
0.55114
0.551167
0.551178
0.551101
0.550944
0.550751
0.550685
0.550908
0.551059
0.551131
0.551134
0.55114
0.551134
0.551128
0.551138
0.551136
0.551142
0.551153
0.551131
0.551136
0.551127
0.551144
0.551149
0.551127
0.551142
0.551131
0.551156
0.551143
0.551151
0.55118
0.551147
0.55114
0.551131
0.551057
0.550908
0.550694
0.550646
0.550868
0.551015
0.551111
0.551149
0.551162
0.551184
0.551171
0.551185
0.551178
0.551176
0.551189
0.551193
0.551167
0.551183
0.55116
0.551172
0.551176
0.551163
0.551199
0.551193
0.551205
0.551201
0.551185
0.551184
0.551157
0.551103
0.551015
0.550868
0.550648
0.550617
0.550817
0.550966
0.551093
0.55118
0.551197
0.551214
0.551184
0.551225
0.551196
0.551198
0.551194
0.551174
0.551192
0.551223
0.551187
0.55121
0.551184
0.551191
0.551182
0.551232
0.551175
0.551214
0.551195
0.551221
0.551182
0.551071
0.550965
0.550816
0.550616
0.550586
0.550762
0.550903
0.550985
0.551202
0.551212
0.551182
0.551221
0.551186
0.551221
0.551214
0.551181
0.551213
0.551188
0.551174
0.551213
0.551176
0.551199
0.551185
0.551233
0.551178
0.551227
0.551182
0.551203
0.551194
0.551216
0.550978
0.550904
0.550762
0.550585
0.550558
0.550717
0.55085
0.550885
0.551173
0.551187
0.55119
0.55118
0.551194
0.551186
0.551193
0.551209
0.551179
0.551179
0.55118
0.551189
0.551211
0.551176
0.551214
0.551173
0.551216
0.551175
0.551203
0.551216
0.551201
0.551104
0.550884
0.550849
0.550717
0.550556
0.55053
0.550676
0.550798
0.550815
0.550836
0.551054
0.551184
0.551206
0.551183
0.551192
0.55118
0.551181
0.551206
0.551184
0.551189
0.551125
0.551168
0.551221
0.551172
0.551172
0.551165
0.55115
0.551172
0.551105
0.551003
0.550772
0.550794
0.550798
0.550676
0.550528
0.550505
0.550639
0.550752
0.550706
0.550688
0.550691
0.550921
0.550834
0.550944
0.550737
0.550696
0.550729
0.550732
0.550817
0.55085
0.550701
0.55074
0.550761
0.55071
0.550709
0.55093
0.550707
0.550764
0.550693
0.550703
0.550703
0.550754
0.550753
0.550639
0.550503
0.550482
0.550607
0.550711
0.55069
0.550669
0.550662
0.550681
0.550701
0.550706
0.550686
0.550668
0.550679
0.550688
0.55071
0.550703
0.550677
0.550678
0.550684
0.550675
0.550678
0.550705
0.550678
0.550697
0.550673
0.550676
0.550697
0.550721
0.550712
0.550607
0.55048
0.55046
0.55058
0.550676
0.550669
0.550652
0.550648
0.550655
0.550674
0.550679
0.550667
0.550661
0.55066
0.550669
0.550684
0.550677
0.550664
0.550671
0.550665
0.550668
0.550663
0.550678
0.550663
0.550672
0.550658
0.550664
0.550676
0.550694
0.550677
0.550581
0.550457
0.55043
0.550557
0.550647
0.550652
0.550648
0.550641
0.550645
0.550653
0.55066
0.550669
0.55066
0.550673
0.550668
0.550674
0.550668
0.550676
0.55067
0.550675
0.550666
0.550683
0.550669
0.550674
0.550658
0.550667
0.550668
0.550667
0.55067
0.550648
0.550557
0.550426
0.550392
0.550532
0.550623
0.550655
0.550668
0.550676
0.550652
0.55066
0.550671
0.550688
0.550716
0.550698
0.550693
0.55069
0.550688
0.550706
0.550717
0.550695
0.550719
0.5507
0.550686
0.550698
0.55069
0.550694
0.550704
0.550688
0.550664
0.550622
0.550532
0.550392
0.550371
0.550499
0.550591
0.550676
0.550703
0.550678
0.550681
0.550675
0.550684
0.55072
0.550703
0.550726
0.550708
0.550707
0.550705
0.550735
0.550704
0.550743
0.550703
0.550745
0.550701
0.550734
0.550694
0.550735
0.5507
0.550706
0.550678
0.55059
0.550498
0.550371
0.550353
0.550464
0.550552
0.550698
0.550678
0.550699
0.55069
0.550693
0.550718
0.55071
0.550706
0.550703
0.550724
0.550712
0.550726
0.5507
0.550731
0.550709
0.550728
0.550699
0.550747
0.550698
0.550735
0.550705
0.550707
0.550717
0.550682
0.55055
0.550464
0.550353
0.550334
0.550436
0.550516
0.550671
0.550687
0.55067
0.550681
0.550691
0.550694
0.55071
0.550703
0.550707
0.550697
0.550704
0.550696
0.550716
0.550699
0.550717
0.550698
0.550724
0.550699
0.550717
0.550695
0.550707
0.550695
0.550694
0.550634
0.550515
0.550436
0.550334
0.550316
0.550409
0.550482
0.55057
0.55066
0.550685
0.55067
0.550675
0.550686
0.550699
0.55073
0.55071
0.550711
0.550704
0.550712
0.550701
0.550717
0.550698
0.550726
0.550694
0.550713
0.550693
0.550713
0.550692
0.550712
0.550698
0.550519
0.550482
0.550409
0.550316
0.550299
0.550384
0.55045
0.550438
0.550509
0.550663
0.550674
0.55056
0.550568
0.550574
0.550522
0.550534
0.550502
0.550442
0.550509
0.55059
0.55049
0.550538
0.550525
0.550596
0.550488
0.550599
0.550532
0.550608
0.550617
0.550535
0.550428
0.55045
0.550384
0.550299
0.550283
0.550361
0.550423
0.5504
0.550385
0.550482
0.55039
0.550395
0.550384
0.550401
0.550382
0.550393
0.55038
0.550394
0.550378
0.550392
0.550383
0.550388
0.550379
0.550388
0.550378
0.550389
0.550378
0.550388
0.550375
0.550386
0.550394
0.550423
0.550361
0.550283
0.550269
0.550341
0.550398
0.550384
0.550372
0.550385
0.550369
0.550377
0.550371
0.550383
0.550371
0.550376
0.550368
0.550377
0.550367
0.550374
0.550367
0.550371
0.550367
0.550371
0.550367
0.550371
0.550362
0.55037
0.550361
0.550371
0.550384
0.550398
0.550341
0.550269
0.550256
0.550324
0.550376
0.550372
0.550362
0.550368
0.550361
0.550365
0.550363
0.550371
0.550364
0.550368
0.550363
0.550367
0.550363
0.550367
0.550361
0.550366
0.550361
0.550367
0.55036
0.550364
0.550357
0.550362
0.550355
0.55036
0.550371
0.550376
0.550324
0.550256
0.550243
0.550309
0.550357
0.55036
0.550365
0.550361
0.550363
0.550366
0.550368
0.550364
0.550374
0.550364
0.550375
0.550363
0.550375
0.550362
0.550374
0.550359
0.550374
0.550362
0.550369
0.550354
0.550372
0.550354
0.550367
0.550363
0.55036
0.550357
0.550309
0.550243
0.550229
0.550297
0.550342
0.550368
0.550377
0.550371
0.550381
0.55038
0.550385
0.550385
0.550392
0.550395
0.550393
0.550391
0.550392
0.550391
0.550376
0.550393
0.550371
0.550393
0.550378
0.55039
0.55038
0.550386
0.550383
0.550378
0.550365
0.550343
0.550297
0.550228
0.550207
0.550277
0.550328
0.550375
0.550405
0.550389
0.550402
0.550392
0.5504
0.550393
0.55041
0.550392
0.550413
0.550393
0.550405
0.550383
0.550406
0.550378
0.550405
0.550377
0.550403
0.550384
0.5504
0.550378
0.5504
0.550383
0.550375
0.550326
0.550276
0.550207
0.550193
0.550255
0.5503
0.550396
0.550385
0.550398
0.550385
0.550394
0.550395
0.550405
0.550389
0.550403
0.550386
0.550407
0.550385
0.550406
0.550382
0.550401
0.550378
0.550404
0.550385
0.5504
0.550384
0.550394
0.550378
0.550386
0.550386
0.550299
0.550255
0.550193
0.55018
0.550238
0.550279
0.550366
0.550388
0.550384
0.550389
0.550398
0.550399
0.550396
0.550401
0.550389
0.550406
0.550391
0.550408
0.550386
0.550405
0.550384
0.550401
0.550384
0.550399
0.550385
0.550404
0.550383
0.550394
0.550379
0.550375
0.550279
0.550238
0.55018
0.550168
0.550222
0.55026
0.55028
0.550367
0.550382
0.550384
0.550399
0.550399
0.550406
0.550388
0.55041
0.550389
0.550409
0.550389
0.550409
0.550384
0.550409
0.550383
0.55041
0.550382
0.550409
0.550381
0.550404
0.55038
0.550364
0.550293
0.550259
0.550222
0.550168
0.550157
0.550207
0.550242
0.550257
0.550356
0.5503
0.550312
0.550324
0.550318
0.5503
0.550368
0.550361
0.550369
0.550366
0.550361
0.550351
0.550391
0.550379
0.550408
0.55032
0.550377
0.550349
0.550374
0.550347
0.550331
0.550265
0.550257
0.550241
0.550207
0.550157
0.550147
0.550193
0.550225
0.550238
0.550246
0.550247
0.550248
0.550249
0.550248
0.550248
0.550249
0.55025
0.55025
0.550251
0.55025
0.55025
0.55025
0.550252
0.550252
0.550249
0.55025
0.55025
0.55025
0.550249
0.550247
0.550244
0.550238
0.550225
0.550193
0.550147
0.550137
0.55018
0.55021
0.550221
0.550227
0.550228
0.550229
0.550229
0.550229
0.550229
0.550229
0.55023
0.55023
0.55023
0.55023
0.55023
0.55023
0.55023
0.55023
0.550229
0.55023
0.55023
0.550229
0.550229
0.550228
0.550226
0.550221
0.55021
0.55018
0.550137
0.550127
0.550168
0.550195
0.550206
0.55021
0.550212
0.550212
0.550212
0.550212
0.550212
0.550213
0.550213
0.550213
0.550213
0.550213
0.550213
0.550213
0.550213
0.550213
0.550213
0.550213
0.550212
0.550212
0.550212
0.550211
0.55021
0.550206
0.550195
0.550168
0.550127
0.550119
0.550156
0.550181
0.550191
0.550195
0.550196
0.550197
0.550197
0.550197
0.550197
0.550197
0.550197
0.550197
0.550197
0.550197
0.550197
0.550197
0.550197
0.550197
0.550197
0.550197
0.550197
0.550197
0.550197
0.550196
0.550195
0.550191
0.550181
0.550156
0.550119
0.55011
0.550145
0.550169
0.550178
0.550181
0.550182
0.550183
0.550183
0.550183
0.550183
0.550183
0.550183
0.550183
0.550183
0.550183
0.550183
0.550183
0.550183
0.550183
0.550183
0.550183
0.550183
0.550183
0.550183
0.550182
0.550181
0.550178
0.550169
0.550145
0.55011
0.550102
0.550135
0.550157
0.550165
0.550168
0.550169
0.550169
0.550169
0.550169
0.550169
0.550169
0.550169
0.550169
0.550169
0.550169
0.550169
0.550169
0.550169
0.550169
0.550169
0.550169
0.550169
0.550169
0.550169
0.550169
0.550168
0.550165
0.550157
0.550135
0.550102
0.550095
0.550125
0.550145
0.550153
0.550156
0.550156
0.550157
0.550157
0.550157
0.550157
0.550157
0.550157
0.550157
0.550157
0.550157
0.550157
0.550157
0.550157
0.550157
0.550157
0.550157
0.550157
0.550157
0.550157
0.550157
0.550156
0.550153
0.550145
0.550125
0.550095
0.550088
0.550116
0.550135
0.550141
0.550144
0.550145
0.550145
0.550145
0.550145
0.550145
0.550145
0.550145
0.550145
0.550145
0.550145
0.550145
0.550145
0.550145
0.550145
0.550145
0.550145
0.550145
0.550145
0.550145
0.550145
0.550144
0.550141
0.550135
0.550116
0.550088
0.550081
0.550107
0.550124
0.55013
0.550133
0.550133
0.550133
0.550133
0.550133
0.550133
0.550133
0.550133
0.550133
0.550133
0.550133
0.550133
0.550133
0.550133
0.550133
0.550133
0.550133
0.550133
0.550133
0.550133
0.550133
0.550133
0.55013
0.550124
0.550107
0.550081
0.550075
0.550099
0.550114
0.55012
0.550122
0.550122
0.550123
0.550123
0.550122
0.550122
0.550122
0.550123
0.550123
0.550123
0.550123
0.550123
0.550123
0.550122
0.550122
0.550122
0.550122
0.550122
0.550122
0.550122
0.550122
0.550122
0.55012
0.550114
0.550099
0.550075
0.550069
0.550091
0.550105
0.55011
0.550112
0.550112
0.550112
0.550112
0.550112
0.550112
0.550112
0.550112
0.550112
0.550112
0.550112
0.550112
0.550112
0.550112
0.550112
0.550112
0.550112
0.550112
0.550112
0.550112
0.550112
0.550112
0.55011
0.550105
0.550091
0.550069
0.550063
0.550083
0.550096
0.550101
0.550102
0.550101
0.550101
0.550101
0.550101
0.550101
0.550101
0.550101
0.5501
0.550101
0.5501
0.550101
0.550101
0.550101
0.550101
0.550101
0.550101
0.550101
0.550101
0.550101
0.550101
0.550101
0.550101
0.550096
0.550083
0.550063
0.550057
0.550076
0.550087
0.550091
0.550092
0.550091
0.550091
0.550091
0.550091
0.550091
0.550091
0.550091
0.550091
0.550091
0.550091
0.550091
0.550091
0.550091
0.550091
0.550091
0.550091
0.550091
0.550091
0.550091
0.550092
0.550092
0.550091
0.550087
0.550076
0.550057
0.550052
0.550068
0.550079
0.550082
0.550083
0.550083
0.550083
0.550083
0.550082
0.550082
0.550082
0.550082
0.550082
0.550082
0.550082
0.550082
0.550082
0.550082
0.550082
0.550082
0.550082
0.550082
0.550082
0.550083
0.550083
0.550083
0.550082
0.550079
0.550069
0.550051
0.550046
0.550062
0.550072
0.550074
0.550075
0.550075
0.550075
0.550074
0.550074
0.550074
0.550074
0.550074
0.550074
0.550074
0.550074
0.550074
0.550074
0.550074
0.550074
0.550074
0.550074
0.550074
0.550074
0.550075
0.550075
0.550075
0.550074
0.550072
0.550062
0.550046
0.550041
0.550056
0.550065
0.550067
0.550067
0.550067
0.550067
0.550067
0.550067
0.550067
0.550067
0.550067
0.550067
0.550067
0.550066
0.550067
0.550066
0.550066
0.550067
0.550067
0.550067
0.550067
0.550067
0.550067
0.550067
0.550067
0.550067
0.550065
0.550056
0.550041
0.550037
0.55005
0.550058
0.55006
0.55006
0.55006
0.55006
0.55006
0.550059
0.550059
0.550059
0.550059
0.550059
0.550059
0.550059
0.550059
0.550059
0.550059
0.550059
0.550059
0.550059
0.550059
0.55006
0.55006
0.55006
0.55006
0.55006
0.550058
0.55005
0.550037
0.550032
0.550045
0.550052
0.550053
0.550054
0.550053
0.550053
0.550053
0.550053
0.550053
0.550053
0.550053
0.550052
0.550052
0.550052
0.550052
0.550052
0.550052
0.550053
0.550053
0.550053
0.550053
0.550053
0.550053
0.550053
0.550054
0.550053
0.550052
0.550045
0.550032
0.550028
0.550039
0.550046
0.550047
0.550047
0.550047
0.550047
0.550046
0.550046
0.550046
0.550046
0.550046
0.550046
0.550046
0.550046
0.550046
0.550046
0.550046
0.550046
0.550046
0.550046
0.550046
0.550046
0.550047
0.550047
0.550047
0.550047
0.550046
0.55004
0.550028
0.550024
0.550034
0.55004
0.550041
0.550041
0.550041
0.55004
0.55004
0.55004
0.55004
0.55004
0.55004
0.55004
0.55004
0.55004
0.55004
0.55004
0.55004
0.55004
0.55004
0.55004
0.55004
0.55004
0.55004
0.550041
0.550041
0.550041
0.55004
0.550034
0.550024
0.55002
0.550029
0.550034
0.550035
0.550035
0.550035
0.550034
0.550034
0.550034
0.550034
0.550034
0.550034
0.550034
0.550034
0.550034
0.550034
0.550034
0.550034
0.550034
0.550034
0.550034
0.550034
0.550034
0.550034
0.550035
0.550035
0.550035
0.550034
0.550029
0.55002
0.550016
0.550025
0.550028
0.550029
0.550028
0.550028
0.550027
0.550027
0.550026
0.550027
0.550026
0.550026
0.550027
0.550026
0.550027
0.550026
0.550027
0.550026
0.550027
0.550026
0.550027
0.550026
0.550027
0.550027
0.550028
0.550029
0.550029
0.550028
0.550024
0.550016
0.550012
0.550019
0.550022
0.550022
0.55002
0.55002
0.550019
0.550019
0.550018
0.550018
0.550018
0.550018
0.550018
0.550018
0.550018
0.550018
0.550018
0.550018
0.550018
0.550018
0.550018
0.550019
0.550019
0.550019
0.55002
0.55002
0.550022
0.550022
0.550019
0.550012
0.550008
0.550013
0.550016
0.550015
0.550014
0.550013
0.550013
0.550012
0.550012
0.550012
0.550012
0.550012
0.550012
0.550012
0.550012
0.550012
0.550012
0.550012
0.550012
0.550012
0.550012
0.550012
0.550012
0.550013
0.550013
0.550014
0.550015
0.550016
0.550013
0.550008
0.550001
0.550007
0.550009
0.550008
0.550007
0.550006
0.550005
0.550004
0.550004
0.550004
0.550004
0.550004
0.550004
0.550004
0.550004
0.550004
0.550004
0.550004
0.550004
0.550004
0.550004
0.550004
0.550004
0.550005
0.550006
0.550007
0.550008
0.550009
0.550007
0.550001
0.549995
0.55
0.550001
0.549999
0.549997
0.549995
0.549994
0.549994
0.549994
0.549993
0.549993
0.549993
0.549993
0.549993
0.549993
0.549993
0.549993
0.549993
0.549993
0.549993
0.549993
0.549994
0.549994
0.549994
0.549995
0.549997
0.549999
0.550001
0.55
0.549995
0.549986
0.549989
0.549988
0.549985
0.549981
0.549978
0.549977
0.549976
0.549976
0.549976
0.549975
0.549975
0.549975
0.549975
0.549975
0.549975
0.549975
0.549975
0.549975
0.549975
0.549976
0.549976
0.549976
0.549977
0.549978
0.549981
0.549985
0.549988
0.549989
0.549986
0.54997
0.54997
0.549965
0.549958
0.549951
0.549946
0.549944
0.549942
0.549941
0.549941
0.549941
0.549941
0.549941
0.549941
0.549941
0.549941
0.549941
0.549941
0.549941
0.549941
0.549941
0.549941
0.549942
0.549944
0.549946
0.549951
0.549958
0.549965
0.54997
0.54997
0.549937
0.549932
0.54992
0.549905
0.549892
0.549883
0.549878
0.549875
0.549874
0.549873
0.549873
0.549872
0.549872
0.549872
0.549872
0.549872
0.549872
0.549872
0.549872
0.549873
0.549873
0.549874
0.549875
0.549878
0.549883
0.549892
0.549905
0.54992
0.549932
0.549937
0.549873
0.549858
0.549831
0.549801
0.549777
0.54976
0.54975
0.549745
0.549742
0.549741
0.54974
0.54974
0.54974
0.54974
0.54974
0.54974
0.54974
0.54974
0.54974
0.54974
0.549741
0.549742
0.549745
0.54975
0.54976
0.549777
0.549801
0.549831
0.549858
0.549873
0.549743
0.549716
0.54966
0.549604
0.549559
0.549527
0.549509
0.549499
0.549494
0.549492
0.549491
0.549491
0.54949
0.54949
0.54949
0.54949
0.54949
0.54949
0.549491
0.549491
0.549492
0.549494
0.549499
0.549509
0.549527
0.549559
0.549604
0.54966
0.549716
0.549743
0.549491
0.549447
0.549344
0.549241
0.549158
0.549103
0.549071
0.549054
0.549046
0.549043
0.549041
0.54904
0.54904
0.54904
0.54904
0.54904
0.54904
0.54904
0.54904
0.549041
0.549043
0.549046
0.549054
0.549071
0.549103
0.549158
0.549241
0.549344
0.549447
0.549491
0.549008
0.548957
0.54877
0.548588
0.548444
0.548351
0.548299
0.548273
0.548261
0.548256
0.548253
0.548252
0.548252
0.548251
0.548251
0.548251
0.548251
0.548252
0.548252
0.548253
0.548256
0.548261
0.548273
0.548299
0.548351
0.548444
0.548588
0.54877
0.548957
0.549008
0.548101
0.548063
0.547731
0.54742
0.547183
0.547039
0.546961
0.546924
0.546907
0.5469
0.546897
0.546895
0.546895
0.546894
0.546894
0.546894
0.546894
0.546895
0.546895
0.546897
0.5469
0.546907
0.546924
0.546961
0.547039
0.547183
0.54742
0.547731
0.548063
0.548101
0.546322
0.546329
0.545741
0.54522
0.544854
0.544649
0.544547
0.544501
0.544481
0.544473
0.544469
0.544468
0.544467
0.544466
0.544466
0.544466
0.544466
0.544467
0.544468
0.544469
0.544473
0.544481
0.544501
0.544547
0.544649
0.544854
0.54522
0.545741
0.546329
0.546322
0.543153
0.54271
0.541461
0.540605
0.540096
0.539846
0.539733
0.539686
0.539666
0.539658
0.539655
0.539653
0.539652
0.539652
0.539651
0.539651
0.539652
0.539652
0.539653
0.539655
0.539658
0.539666
0.539686
0.539733
0.539846
0.540096
0.540605
0.541461
0.54271
0.543153
0.52531
0.51913
0.516351
0.515181
0.514706
0.514558
0.514518
0.514513
0.514517
0.514522
0.514526
0.514529
0.514531
0.514533
0.514534
0.514534
0.514533
0.514531
0.514529
0.514526
0.514522
0.514517
0.514513
0.514518
0.514558
0.514706
0.51518
0.51635
0.51913
0.525309
0.47568
0.470768
0.471444
0.47125
0.470795
0.470356
0.470022
0.469789
0.469627
0.469513
0.469432
0.469376
0.469337
0.469313
0.469302
0.469302
0.469313
0.469337
0.469376
0.469433
0.469513
0.469628
0.46979
0.470024
0.470358
0.470797
0.471253
0.47145
0.470779
0.475692
0.0894037
0.0935416
0.0955795
0.0959439
0.0962103
0.0964551
0.0966538
0.0967988
0.096902
0.0969752
0.0970272
0.0970636
0.0970884
0.0971038
0.0971112
0.0971112
0.0971037
0.0970883
0.0970634
0.0970268
0.0969747
0.0969013
0.0967979
0.0966525
0.0964535
0.0962083
0.0959409
0.095574
0.0935323
0.0893939
0.000970458
0.00156491
0.00156525
0.0015332
0.00151243
0.00150456
0.00150251
0.00150335
0.00150553
0.00150812
0.00151055
0.00151257
0.00151408
0.00151507
0.00151555
0.00151555
0.00151506
0.00151407
0.00151255
0.00151052
0.00150807
0.00150547
0.00150327
0.00150241
0.00150444
0.00151228
0.00153296
0.00156476
0.00156401
0.000969852
2.82744e-07
9.9805e-07
1.0311e-06
9.82411e-07
9.33224e-07
9.04881e-07
8.88904e-07
8.81543e-07
8.79418e-07
8.80049e-07
8.81784e-07
8.83686e-07
8.85298e-07
8.86424e-07
8.86995e-07
8.86991e-07
8.86412e-07
8.85275e-07
8.83648e-07
8.81724e-07
8.79961e-07
8.79292e-07
8.8137e-07
8.88676e-07
9.04591e-07
9.32848e-07
9.81857e-07
1.03016e-06
9.96528e-07
2.82463e-07
1.99458e-12
1.02101e-11
1.29069e-11
1.3327e-11
1.30126e-11
1.27281e-11
1.25456e-11
1.24661e-11
1.24607e-11
1.24957e-11
1.2545e-11
1.2593e-11
1.26319e-11
1.26586e-11
1.2672e-11
1.26719e-11
1.26584e-11
1.26315e-11
1.25923e-11
1.25439e-11
1.2494e-11
1.24581e-11
1.24624e-11
1.25405e-11
1.27213e-11
1.30033e-11
1.33134e-11
1.28864e-11
1.01846e-11
1.99051e-12
1.23195e-17
7.44513e-17
1.0903e-16
1.2509e-16
1.30908e-16
1.33307e-16
1.34531e-16
1.35556e-16
1.36615e-16
1.37663e-16
1.38602e-16
1.39371e-16
1.39946e-16
1.40324e-16
1.40511e-16
1.40511e-16
1.40323e-16
1.39944e-16
1.39367e-16
1.38594e-16
1.37649e-16
1.36592e-16
1.3552e-16
1.3448e-16
1.33238e-16
1.30816e-16
1.24965e-16
1.08862e-16
7.42719e-17
1.22859e-17
6.58142e-23
4.7268e-22
7.8939e-22
9.9307e-22
1.10663e-21
1.17241e-21
1.21294e-21
1.24131e-21
1.26306e-21
1.28022e-21
1.29359e-21
1.30364e-21
1.31078e-21
1.31534e-21
1.31757e-21
1.31757e-21
1.31536e-21
1.3108e-21
1.30366e-21
1.2936e-21
1.2802e-21
1.26297e-21
1.24113e-21
1.21264e-21
1.17198e-21
1.10605e-21
9.92305e-22
7.884e-22
4.7167e-22
6.56031e-23
3.09373e-28
2.57986e-27
4.82532e-27
6.57844e-27
7.75718e-27
8.53291e-27
9.04826e-27
9.40801e-27
9.66881e-27
9.86068e-27
1.00012e-26
1.01022e-26
1.01717e-26
1.02152e-26
1.02363e-26
1.02364e-26
1.02157e-26
1.01724e-26
1.01032e-26
1.00024e-26
9.86195e-27
9.67003e-27
9.40897e-27
9.04877e-27
8.53286e-27
7.75645e-27
6.57665e-27
4.82188e-27
2.57557e-27
3.08267e-28
1.29654e-33
1.21695e-32