/*--------------------------------*- C++ -*----------------------------------*\
| =========                 |                                                 |
| \\      /  F ield         | OpenFOAM: The Open Source CFD Toolbox           |
|  \\    /   O peration     | Version:  2312                                  |
|   \\  /    A nd           | Website:  www.openfoam.com                      |
|    \\/     M anipulation  |                                                 |
\*---------------------------------------------------------------------------*/
FoamFile
{
    version     2.0;
    format      ascii;
    arch        "LSB;label=32;scalar=64";
    class       volScalarField;
    location    "0.01";
    object      k.air;
}
// * * * * * * * * * * * * * * * * * * * * * * * * * * * * * * * * * * * * * //

dimensions      [0 2 -2 0 0 0 0];

internalField   nonuniform List<scalar> 
6000
(
0.899938
0.955606
0.968022
0.973165
0.975685
0.976589
0.976749
0.976633
0.976449
0.976277
0.976138
0.976037
0.975966
0.975922
0.9759
0.9759
0.975921
0.975965
0.976036
0.976137
0.976275
0.976447
0.976632
0.976749
0.976589
0.975686
0.973165
0.968022
0.955607
0.899939
0.610432
0.875768
0.94752
0.973609
0.985239
0.990148
0.991898
0.992284
0.992167
0.991919
0.99168
0.99149
0.991355
0.991269
0.991228
0.991228
0.991269
0.991354
0.991488
0.991676
0.991916
0.992164
0.992282
0.991898
0.990149
0.985242
0.973612
0.947523
0.87577
0.610433
0.500832
0.807891
0.907161
0.947695
0.96491
0.972604
0.975852
0.977042
0.977358
0.977353
0.977258
0.97716
0.977084
0.977035
0.977011
0.977011
0.977034
0.977083
0.977159
0.977256
0.97735
0.977356
0.977041
0.975853
0.972607
0.964914
0.9477
0.907165
0.807893
0.500832
0.464442
0.775226
0.883695
0.929264
0.950185
0.96003
0.964495
0.966355
0.967034
0.967228
0.967249
0.967222
0.967191
0.967169
0.967157
0.967157
0.967168
0.967191
0.967221
0.967248
0.967226
0.967033
0.966355
0.964495
0.960032
0.950188
0.929269
0.883699
0.775228
0.464442
0.452876
0.761078
0.871141
0.918534
0.94099
0.951867
0.956966
0.959194
0.960076
0.96038
0.960463
0.960473
0.960464
0.960455
0.96045
0.960451
0.960456
0.960465
0.960475
0.960464
0.960379
0.960074
0.959194
0.956965
0.951866
0.940991
0.918538
0.871144
0.76108
0.452878
0.448658
0.754816
0.864402
0.912059
0.934948
0.946202
0.951568
0.953964
0.954941
0.955298
0.955409
0.955434
0.955433
0.955427
0.955424
0.955426
0.955429
0.955433
0.955434
0.95541
0.955296
0.95494
0.953962
0.951567
0.946201
0.93495
0.912062
0.864405
0.754818
0.448659
0.446487
0.751743
0.860599
0.908019
0.930886
0.942198
0.947638
0.950091
0.951105
0.951481
0.951605
0.951635
0.951637
0.951631
0.951627
0.951625
0.95163
0.951634
0.951632
0.951603
0.95148
0.951104
0.950091
0.947639
0.942199
0.930888
0.90802
0.860604
0.751749
0.446488
0.444888
0.749934
0.858259
0.905363
0.928077
0.93933
0.94476
0.947217
0.948243
0.948624
0.948752
0.948786
0.948788
0.94878
0.948776
0.948774
0.948779
0.948782
0.948778
0.948748
0.948623
0.948242
0.947222
0.944763
0.939334
0.928079
0.905363
0.858262
0.749941
0.444889
0.443482
0.748635
0.856646
0.903502
0.926071
0.937241
0.94265
0.945095
0.946117
0.9465
0.946628
0.94666
0.946663
0.946647
0.946655
0.946645
0.94666
0.946656
0.946657
0.946624
0.946502
0.946117
0.945094
0.942646
0.937257
0.926077
0.903507
0.856646
0.74864
0.443483
0.442105
0.747545
0.855408
0.902117
0.924576
0.9357
0.941082
0.943511
0.944525
0.9449
0.945032
0.945059
0.945068
0.945059
0.945062
0.945056
0.945055
0.94506
0.945055
0.945042
0.944906
0.944529
0.943507
0.941065
0.935695
0.924583
0.90212
0.855405
0.747545
0.442107
0.440753
0.74651
0.85435
0.900994
0.92339
0.934477
0.939805
0.94224
0.943238
0.943625
0.943742
0.943771
0.943779
0.943793
0.943781
0.94379
0.943787
0.943791
0.943778
0.943751
0.943615
0.943245
0.942237
0.939817
0.934463
0.923396
0.90099
0.854344
0.746507
0.440755
0.439432
0.745478
0.853371
0.900006
0.922373
0.93343
0.938745
0.941162
0.942175
0.94255
0.942685
0.942719
0.942731
0.942732
0.942719
0.942741
0.942733
0.942738
0.942729
0.942682
0.94257
0.942182
0.941188
0.938772
0.933437
0.922383
0.900004
0.853367
0.745478
0.439434
0.438151
0.74447
0.852387
0.89907
0.92145
0.932465
0.937791
0.940199
0.941219
0.941619
0.941746
0.941786
0.941799
0.941796
0.941799
0.941785
0.941801
0.941791
0.941801
0.941763
0.941625
0.941245
0.940218
0.9378
0.932505
0.921466
0.899089
0.852399
0.744471
0.438149
0.436903
0.74351
0.851374
0.89814
0.920527
0.931569
0.9369
0.939305
0.940337
0.940714
0.940861
0.940913
0.940933
0.940916
0.940945
0.940926
0.940927
0.940918
0.940914
0.940876
0.940737
0.940336
0.939323
0.936902
0.931592
0.920546
0.898148
0.851387
0.74351
0.436899
0.435695
0.742605
0.850375
0.897119
0.919573
0.930635
0.935951
0.93837
0.939379
0.939789
0.939923
0.939965
0.939977
0.940004
0.94
0.940004
0.939999
0.939997
0.939979
0.939927
0.939785
0.939392
0.938377
0.935964
0.930645
0.919578
0.897122
0.85038
0.742605
0.435691
0.434525
0.741755
0.849436
0.896065
0.918488
0.929561
0.934884
0.937344
0.938344
0.938747
0.938881
0.938947
0.938951
0.938961
0.938956
0.938973
0.938977
0.938973
0.938916
0.938859
0.938714
0.938323
0.937308
0.934879
0.929534
0.918461
0.896065
0.849439
0.741756
0.434521
0.433337
0.740926
0.848555
0.895095
0.917432
0.928457
0.933787
0.936223
0.937248
0.937644
0.937791
0.93785
0.937856
0.937861
0.93786
0.937872
0.937863
0.937852
0.937815
0.937744
0.93761
0.937201
0.936185
0.933763
0.928423
0.917411
0.895094
0.848559
0.74093
0.433341
0.432141
0.740103
0.847719
0.894224
0.916519
0.927513
0.93282
0.935244
0.936268
0.936664
0.936809
0.936855
0.936867
0.936873
0.93687
0.936872
0.936871
0.936865
0.936846
0.936786
0.936654
0.93625
0.935232
0.932814
0.927505
0.916515
0.894226
0.847724
0.740109
0.432147
0.430973
0.739302
0.846918
0.893411
0.915698
0.926683
0.931974
0.934389
0.935407
0.935808
0.935947
0.935991
0.936002
0.936004
0.936005
0.936007
0.936005
0.936003
0.935988
0.935946
0.935801
0.93541
0.934389
0.931973
0.926681
0.915698
0.893414
0.846922
0.739307
0.430976
0.429787
0.738512
0.846143
0.892637
0.91492
0.925904
0.931199
0.933604
0.934623
0.935017
0.935157
0.935202
0.935218
0.935221
0.935218
0.935215
0.935215
0.935213
0.935203
0.935157
0.935016
0.934619
0.933603
0.931198
0.925905
0.914923
0.892642
0.846147
0.738516
0.42979
0.428628
0.737727
0.845377
0.89189
0.914184
0.925162
0.930442
0.932841
0.933853
0.934252
0.934391
0.934431
0.934444
0.934437
0.934447
0.934447
0.934444
0.934449
0.934441
0.934409
0.934261
0.93387
0.932846
0.930432
0.925161
0.91419
0.891895
0.845381
0.737729
0.42863
0.427499
0.73694
0.8446
0.891125
0.913465
0.924451
0.929744
0.932146
0.933169
0.933562
0.933704
0.933751
0.933764
0.933764
0.933759
0.93375
0.933758
0.933761
0.933761
0.933715
0.933581
0.933176
0.932152
0.929753
0.92445
0.913472
0.891132
0.844604
0.736941
0.427499
0.426407
0.736175
0.843823
0.89033
0.912686
0.923733
0.929028
0.931445
0.93246
0.932861
0.932999
0.933046
0.933054
0.933058
0.933055
0.933059
0.933056
0.933061
0.933067
0.933017
0.932873
0.932477
0.931457
0.929046
0.923752
0.912705
0.890336
0.843826
0.736175
0.426406
0.425338
0.735442
0.843066
0.889533
0.91184
0.922935
0.928275
0.930699
0.931713
0.932102
0.932251
0.932304
0.932319
0.932337
0.932339
0.932348
0.932362
0.932338
0.932324
0.932279
0.932132
0.931732
0.930737
0.928323
0.92297
0.911852
0.889532
0.843068
0.735443
0.425337
0.424293
0.734736
0.842339
0.888766
0.911018
0.922035
0.927399
0.929808
0.930847
0.931247
0.931396
0.93144
0.931461
0.931463
0.93147
0.931456
0.931433
0.93145
0.931447
0.931398
0.931251
0.930852
0.92981
0.927391
0.922046
0.911014
0.88876
0.84234
0.734739
0.424293
0.423277
0.734055
0.841639
0.888041
0.91026
0.921216
0.926512
0.928924
0.929956
0.930354
0.930503
0.930547
0.930567
0.930571
0.930571
0.930563
0.930557
0.930557
0.930546
0.930492
0.930344
0.929948
0.928921
0.926512
0.921221
0.910248
0.888034
0.841641
0.734059
0.423278
0.422262
0.73339
0.840962
0.887346
0.90955
0.920488
0.925761
0.928158
0.929183
0.92958
0.929727
0.929776
0.929794
0.929801
0.929802
0.929793
0.92979
0.929787
0.929772
0.929719
0.929572
0.929175
0.928153
0.925753
0.920479
0.909537
0.88734
0.840964
0.733393
0.422262
0.421241
0.73273
0.840305
0.886673
0.908869
0.919798
0.925064
0.927462
0.928475
0.928872
0.929018
0.929068
0.929086
0.929092
0.929095
0.929097
0.929094
0.929082
0.929065
0.929014
0.928868
0.928471
0.927462
0.925066
0.919799
0.90886
0.886671
0.840306
0.732733
0.421242
0.420236
0.732079
0.839661
0.886026
0.908213
0.919136
0.924392
0.926776
0.9278
0.928199
0.928341
0.928389
0.928408
0.928419
0.928418
0.928406
0.9284
0.928396
0.928386
0.92834
0.928194
0.927801
0.926771
0.924384
0.919126
0.90821
0.886028
0.839663
0.732081
0.420238
0.419269
0.731432
0.839023
0.8854
0.907591
0.91852
0.923756
0.926158
0.927144
0.927545
0.927686
0.927741
0.92775
0.927759
0.92777
0.927781
0.927785
0.927781
0.927758
0.927704
0.927561
0.927152
0.926163
0.923773
0.918522
0.907582
0.885402
0.839024
0.731433
0.419271
0.418339
0.730805
0.83839
0.884764
0.906991
0.917908
0.92317
0.925556
0.926552
0.92694
0.927083
0.927135
0.927148
0.92716
0.927157
0.927171
0.927174
0.927173
0.927152
0.927106
0.926956
0.926559
0.925555
0.923165
0.917911
0.906972
0.88478
0.838394
0.730805
0.418339
0.417434
0.730203
0.837773
0.884123
0.906357
0.917319
0.922574
0.924951
0.925952
0.926338
0.926474
0.926525
0.926539
0.926541
0.926549
0.926548
0.926548
0.926539
0.926523
0.926474
0.926343
0.925942
0.924946
0.922565
0.917291
0.906375
0.88414
0.837777
0.730202
0.417433
0.416555
0.729626
0.837176
0.883488
0.905665
0.916637
0.9219
0.924297
0.925303
0.925706
0.925855
0.925897
0.925926
0.925929
0.925909
0.925921
0.925915
0.925888
0.925867
0.925822
0.92567
0.925306
0.924287
0.921885
0.916651
0.905721
0.883501
0.837178
0.729624
0.416554
0.415699
0.729066
0.836599
0.88288
0.905012
0.915923
0.921169
0.923551
0.924565
0.924961
0.925116
0.925169
0.925178
0.92519
0.925194
0.925194
0.925195
0.925178
0.925155
0.9251
0.924956
0.924566
0.923563
0.921173
0.915931
0.905028
0.882886
0.8366
0.729064
0.415697
0.414867
0.728522
0.836041
0.882301
0.904414
0.915299
0.920539
0.922916
0.923927
0.92432
0.924468
0.924518
0.924527
0.924539
0.924541
0.924541
0.924541
0.92453
0.924517
0.924462
0.924321
0.92393
0.922928
0.920543
0.915298
0.904414
0.882304
0.836043
0.728522
0.414866
0.414059
0.727994
0.8355
0.881744
0.903848
0.914723
0.919959
0.922345
0.923346
0.923736
0.923876
0.923924
0.923941
0.923947
0.923948
0.923948
0.923946
0.923941
0.923929
0.923881
0.92374
0.923347
0.922342
0.919963
0.914722
0.903848
0.881746
0.835502
0.727995
0.414057
0.413256
0.727479
0.834976
0.881203
0.903296
0.914169
0.919407
0.921783
0.922786
0.923175
0.923314
0.923363
0.923382
0.923386
0.923398
0.923379
0.92338
0.923381
0.923363
0.923321
0.92318
0.922783
0.921784
0.91939
0.91417
0.903297
0.881206
0.834979
0.727481
0.413258
0.412466
0.726975
0.834467
0.880684
0.902765
0.913629
0.918852
0.921233
0.922225
0.922615
0.922754
0.922796
0.922822
0.922826
0.92282
0.922821
0.922815
0.922817
0.922805
0.922761
0.922612
0.92222
0.921213
0.918848
0.913632
0.902767
0.880686
0.83447
0.726978
0.412468
0.411711
0.726482
0.833969
0.88018
0.902242
0.913119
0.918349
0.920714
0.921718
0.922095
0.922241
0.922298
0.922313
0.922304
0.9223
0.922298
0.922302
0.922312
0.922283
0.922238
0.922102
0.921712
0.920707
0.918347
0.913126
0.902247
0.880178
0.833971
0.726485
0.411712
0.410986
0.726002
0.833478
0.879678
0.901764
0.912621
0.917849
0.920216
0.921216
0.921593
0.92173
0.921786
0.921795
0.921804
0.921806
0.921813
0.921807
0.921811
0.921788
0.921736
0.921601
0.921211
0.920213
0.91786
0.912635
0.901773
0.87968
0.833481
0.726005
0.410987
0.410285
0.725542
0.833001
0.879179
0.901284
0.912134
0.917345
0.919708
0.920709
0.921104
0.921241
0.921288
0.921305
0.92131
0.921327
0.921308
0.921308
0.921297
0.921282
0.921242
0.921102
0.920719
0.919729
0.917347
0.912142
0.901304
0.879186
0.833006
0.725546
0.410286
0.409607
0.725102
0.832544
0.878698
0.900783
0.911645
0.916828
0.919189
0.920191
0.920592
0.920736
0.92078
0.920796
0.92081
0.920803
0.920818
0.920804
0.920782
0.920775
0.920741
0.920596
0.92021
0.919218
0.916854
0.911631
0.900751
0.878696
0.832549
0.725106
0.409608
0.40895
0.724676
0.832104
0.878227
0.900261
0.911099
0.916326
0.918698
0.91969
0.920084
0.920214
0.920257
0.920287
0.920288
0.920283
0.920276
0.920286
0.920282
0.920263
0.920207
0.920071
0.919678
0.918673
0.916314
0.9111
0.900259
0.878231
0.832107
0.724679
0.408951
0.408314
0.724264
0.831677
0.877781
0.899793
0.91062
0.91583
0.918193
0.91919
0.919576
0.919715
0.919761
0.919779
0.919783
0.919783
0.919779
0.919783
0.919778
0.919762
0.919715
0.919576
0.919186
0.918188
0.915826
0.910624
0.899799
0.877787
0.83168
0.724266
0.408315
0.407701
0.723864
0.831263
0.877355
0.899359
0.91018
0.915381
0.917742
0.918733
0.919118
0.919257
0.919305
0.919319
0.919324
0.919325
0.919325
0.919324
0.919321
0.919305
0.919257
0.919119
0.91873
0.91774
0.915379
0.91018
0.899362
0.877359
0.831265
0.723866
0.407701
0.407104
0.723477
0.830863
0.876941
0.898944
0.909761
0.914951
0.917309
0.918303
0.918691
0.918834
0.91888
0.91889
0.918889
0.918892
0.9189
0.918899
0.918893
0.918881
0.918826
0.918685
0.918304
0.917314
0.91496
0.909759
0.898942
0.876944
0.830864
0.723478
0.407104
0.406519
0.723101
0.830476
0.876544
0.898531
0.909347
0.914539
0.916888
0.917877
0.918252
0.918385
0.918435
0.918453
0.91846
0.918463
0.918459
0.918457
0.91845
0.918437
0.918387
0.918256
0.917865
0.916881
0.914525
0.909335
0.89853
0.876544
0.830477
0.723103
0.40652
0.405961
0.722737
0.830098
0.876146
0.898139
0.908941
0.914125
0.916479
0.917469
0.917857
0.917996
0.918037
0.918054
0.918058
0.918058
0.918063
0.918062
0.91806
0.918043
0.917998
0.917851
0.917474
0.916478
0.914132
0.908943
0.898137
0.876159
0.830101
0.722738
0.405962
0.405427
0.722384
0.829735
0.875786
0.897761
0.908558
0.913745
0.916089
0.917089
0.917467
0.917614
0.917653
0.917669
0.917673
0.917681
0.917677
0.917679
0.917664
0.917661
0.917611
0.917478
0.917086
0.916099
0.913744
0.908572
0.897764
0.87579
0.829737
0.722386
0.405428
0.404913
0.722046
0.829385
0.87543
0.8974
0.908188
0.913364
0.915723
0.916712
0.917101
0.917241
0.917292
0.917304
0.917303
0.917304
0.917308
0.917304
0.917305
0.917283
0.917237
0.917094
0.916719
0.915725
0.913382
0.908199
0.897408
0.875442
0.829389
0.722049
0.404913
0.404418
0.721724
0.82905
0.875098
0.897046
0.90783
0.913007
0.915349
0.916335
0.916721
0.916855
0.916906
0.916923
0.916932
0.91693
0.916927
0.916921
0.916918
0.9169
0.916858
0.916725
0.916337
0.915349
0.913
0.907822
0.897049
0.875073
0.82905
0.721727
0.404419
0.403942
0.721416
0.828724
0.874725
0.896675
0.907469
0.912636
0.914977
0.91596
0.916353
0.916488
0.916536
0.916546
0.916557
0.916558
0.916562
0.916555
0.916554
0.91654
0.916499
0.916355
0.915967
0.914978
0.912633
0.907461
0.896682
0.874721
0.828726
0.721418
0.403943
0.403484
0.721118
0.828411
0.874391
0.896324
0.907107
0.912275
0.914616
0.915603
0.915987
0.916126
0.916169
0.916187
0.916189
0.916194
0.916191
0.916192
0.916184
0.916173
0.916126
0.915987
0.915599
0.914617
0.91227
0.907105
0.896329
0.874394
0.828414
0.72112
0.403485
0.403045
0.72083
0.82811
0.874076
0.895997
0.90677
0.91194
0.914281
0.915267
0.915651
0.915789
0.915835
0.915852
0.915854
0.915858
0.915856
0.915857
0.91585
0.915837
0.91579
0.915651
0.915265
0.914283
0.911937
0.906772
0.896003
0.874079
0.828112
0.720832
0.403045
0.402622
0.720552
0.827818
0.873772
0.895687
0.906454
0.911621
0.913965
0.91495
0.915335
0.915472
0.915518
0.915533
0.915537
0.915539
0.915538
0.915536
0.915532
0.915516
0.915471
0.915331
0.91495
0.913965
0.911625
0.906458
0.895692
0.873777
0.827821
0.720555
0.402622
0.402215
0.720284
0.827537
0.87348
0.89539
0.906151
0.911318
0.91366
0.914646
0.915027
0.915166
0.915214
0.915227
0.915231
0.915233
0.915235
0.915231
0.915229
0.915211
0.915165
0.915026
0.914648
0.913662
0.911326
0.906161
0.895395
0.873484
0.82754
0.720287
0.402215
0.401823
0.720027
0.827265
0.873197
0.895097
0.905856
0.911015
0.913359
0.914339
0.914724
0.914857
0.914907
0.914919
0.914924
0.914925
0.914928
0.914927
0.914921
0.914908
0.914859
0.91472
0.914343
0.913355
0.911019
0.905854
0.895103
0.873203
0.82727
0.720029
0.401823
0.401446
0.719778
0.827005
0.872924
0.894829
0.905575
0.91074
0.913075
0.914063
0.914436
0.914575
0.914625
0.914635
0.914643
0.914644
0.914646
0.914641
0.914641
0.914623
0.914578
0.914443
0.91406
0.913076
0.910738
0.90558
0.894827
0.872933
0.827009
0.71978
0.401446
0.401087
0.719539
0.826755
0.872675
0.894568
0.905318
0.910473
0.912808
0.91379
0.914174
0.91431
0.914354
0.914368
0.914375
0.914374
0.914372
0.914372
0.914369
0.914353
0.914308
0.914171
0.913789
0.912807
0.910472
0.905314
0.894569
0.872672
0.826758
0.719541
0.401087
0.400743
0.719311
0.826517
0.872437
0.894316
0.905056
0.910213
0.912547
0.913531
0.91391
0.914051
0.914093
0.91411
0.914111
0.914116
0.914112
0.914112
0.914107
0.914092
0.914042
0.913911
0.913527
0.912549
0.910213
0.905059
0.894311
0.872434
0.826519
0.719313
0.400744
0.400414
0.719093
0.826285
0.872182
0.894063
0.904804
0.909953
0.912289
0.913262
0.913647
0.913786
0.913835
0.913849
0.91385
0.913852
0.913852
0.913852
0.913843
0.913829
0.913782
0.913647
0.913269
0.912286
0.909954
0.904801
0.894067
0.872193
0.82629
0.719096
0.400414
0.400099
0.718885
0.826064
0.871946
0.893822
0.904556
0.909707
0.912043
0.913024
0.913405
0.913544
0.913591
0.913609
0.913612
0.913614
0.913615
0.913609
0.913603
0.913586
0.913552
0.913407
0.913029
0.912051
0.909712
0.904564
0.893819
0.87195
0.826068
0.718887
0.4001
0.399798
0.718685
0.825853
0.871725
0.893588
0.904321
0.90947
0.911803
0.912783
0.913164
0.913301
0.913347
0.913361
0.913371
0.913367
0.913369
0.913371
0.91337
0.913356
0.913302
0.913166
0.912787
0.911805
0.909471
0.904323
0.89359
0.871728
0.825856
0.718687
0.399798
0.39951
0.718493
0.82565
0.871512
0.893369
0.904099
0.909246
0.911578
0.912558
0.912938
0.913075
0.91312
0.913135
0.913139
0.91314
0.91314
0.913139
0.913135
0.913121
0.913075
0.912938
0.912558
0.911578
0.909247
0.904101
0.893372
0.871515
0.825653
0.718495
0.39951
0.399234
0.718308
0.825454
0.871308
0.893159
0.903887
0.909032
0.911363
0.912343
0.912723
0.912859
0.912905
0.912919
0.912923
0.912925
0.912925
0.912923
0.912919
0.912905
0.912859
0.912722
0.912342
0.911363
0.909033
0.903888
0.893162
0.871311
0.825457
0.71831
0.399235
0.398972
0.718131
0.825267
0.871112
0.892958
0.903682
0.908826
0.911156
0.912135
0.912515
0.912652
0.912697
0.912711
0.912716
0.912717
0.912717
0.912716
0.912711
0.912697
0.912651
0.912515
0.912135
0.911156
0.908827
0.903684
0.89296
0.871115
0.82527
0.718133
0.398972
0.398721
0.717962
0.825087
0.870924
0.892765
0.903486
0.908628
0.910957
0.911936
0.912316
0.912452
0.912498
0.912512
0.912516
0.912518
0.912518
0.912516
0.912512
0.912498
0.912452
0.912316
0.911936
0.910958
0.908629
0.903488
0.892767
0.870926
0.82509
0.717964
0.398721
0.398482
0.7178
0.824915
0.870743
0.89258
0.903298
0.908439
0.910767
0.911745
0.912125
0.912261
0.912307
0.912321
0.912325
0.912326
0.912326
0.912325
0.912321
0.912307
0.912261
0.912125
0.911746
0.910768
0.90844
0.9033
0.892582
0.870746
0.824918
0.717802
0.398483
0.398255
0.717645
0.82475
0.87057
0.892402
0.903118
0.908257
0.910585
0.911563
0.911942
0.912078
0.912124
0.912138
0.912142
0.912143
0.912143
0.912142
0.912138
0.912124
0.912078
0.911942
0.911563
0.910585
0.908258
0.903119
0.892404
0.870573
0.824753
0.717647
0.398255
0.398039
0.717497
0.824591
0.870405
0.892232
0.902945
0.908083
0.91041
0.911388
0.911767
0.911903
0.911948
0.911963
0.911967
0.911968
0.911968
0.911967
0.911963
0.911948
0.911903
0.911767
0.911388
0.91041
0.908084
0.902947
0.892234
0.870408
0.824594
0.717499
0.39804
0.397835
0.717355
0.82444
0.870246
0.892069
0.902779
0.907916
0.910242
0.91122
0.911599
0.911735
0.91178
0.911795
0.911799
0.9118
0.9118
0.911799
0.911795
0.91178
0.911735
0.911599
0.91122
0.910243
0.907917
0.902781
0.892071
0.870249
0.824443
0.717357
0.397835
0.397641
0.71722
0.824294
0.870093
0.891912
0.902621
0.907756
0.910082
0.911059
0.911438
0.911574
0.911619
0.911633
0.911638
0.911639
0.911639
0.911638
0.911633
0.911619
0.911574
0.911438
0.911059
0.910082
0.907757
0.902622
0.891914
0.870096
0.824298
0.717222
0.397642
0.397458
0.71709
0.824155
0.869947
0.891762
0.902468
0.907602
0.909927
0.910904
0.911283
0.911419
0.911464
0.911479
0.911483
0.911484
0.911484
0.911483
0.911478
0.911464
0.911419
0.911283
0.910904
0.909928
0.907603
0.90247
0.891764
0.86995
0.824158
0.717092
0.397459
0.397285
0.716966
0.824022
0.869807
0.891618
0.902322
0.907455
0.909779
0.910756
0.911134
0.91127
0.911316
0.91133
0.911334
0.911335
0.911335
0.911334
0.91133
0.911315
0.91127
0.911134
0.910756
0.90978
0.907456
0.902323
0.89162
0.86981
0.824025
0.716969
0.397286
0.397121
0.716848
0.823894
0.869672
0.89148
0.902182
0.907314
0.909638
0.910614
0.910992
0.911128
0.911173
0.911187
0.911192
0.911193
0.911193
0.911192
0.911187
0.911173
0.911128
0.910992
0.910614
0.909638
0.907315
0.902183
0.891482
0.869675
0.823897
0.71685
0.397122
0.396967
0.716734
0.823771
0.869544
0.891348
0.902048
0.907179
0.909502
0.910478
0.910857
0.910992
0.911037
0.911052
0.911056
0.911057
0.911057
0.911056
0.911052
0.911037
0.910992
0.910857
0.910478
0.909503
0.90718
0.902049
0.89135
0.869547
0.823774
0.716737
0.396967
0.396819
0.716626
0.823654
0.869421
0.891221
0.90192
0.90705
0.909373
0.910349
0.910727
0.910862
0.910908
0.910922
0.910926
0.910927
0.910927
0.910926
0.910922
0.910908
0.910862
0.910727
0.910349
0.909373
0.907051
0.901921
0.891224
0.869424
0.823657
0.716628
0.39682
0.396681
0.716522
0.823541
0.869303
0.8911
0.901797
0.906926
0.909249
0.910224
0.910603
0.910738
0.910783
0.910797
0.910801
0.910802
0.910802
0.910801
0.910797
0.910783
0.910738
0.910603
0.910225
0.909249
0.906927
0.901799
0.891103
0.869306
0.823544
0.716524
0.396682
0.396551
0.716423
0.823434
0.86919
0.890984
0.90168
0.906808
0.90913
0.910105
0.910483
0.910619
0.910664
0.910678
0.910682
0.910683
0.910683
0.910682
0.910678
0.910664
0.910619
0.910483
0.910105
0.90913
0.906809
0.901681
0.890987
0.869193
0.823437
0.716425
0.396552
0.39643
0.716328
0.82333
0.869081
0.890873
0.901567
0.906694
0.909016
0.909991
0.910369
0.910504
0.910549
0.910563
0.910567
0.910568
0.910568
0.910567
0.910563
0.910549
0.910504
0.910369
0.909991
0.909016
0.906695
0.901568
0.890875
0.869084
0.823333
0.716331
0.396431
0.396316
0.716237
0.823231
0.868976
0.890765
0.901458
0.906585
0.908906
0.909881
0.910259
0.910394
0.910439
0.910453
0.910457
0.910458
0.910458
0.910457
0.910453
0.910439
0.910394
0.910259
0.909881
0.908906
0.906586
0.901459
0.890768
0.868979
0.823234
0.71624
0.396317
0.396208
0.71615
0.823135
0.868875
0.890662
0.901353
0.906479
0.9088
0.909775
0.910153
0.910288
0.910333
0.910346
0.91035
0.910351
0.910351
0.91035
0.910346
0.910333
0.910288
0.910153
0.909775
0.908801
0.90648
0.901355
0.890664
0.868878
0.823138
0.716152
0.396209
0.396107
0.716064
0.823041
0.868778
0.890562
0.901252
0.906378
0.908698
0.909673
0.91005
0.910185
0.91023
0.910244
0.910248
0.910249
0.910249
0.910248
0.910244
0.91023
0.910185
0.91005
0.909673
0.908699
0.906379
0.901254
0.890565
0.868781
0.823045
0.716067
0.396108
0.396011
0.715981
0.822951
0.868683
0.890465
0.901154
0.90628
0.9086
0.909574
0.909952
0.910086
0.910131
0.910145
0.910149
0.91015
0.91015
0.910149
0.910145
0.910131
0.910086
0.909952
0.909574
0.9086
0.90628
0.901156
0.890468
0.868686
0.822954
0.715983
0.396011
0.395919
0.715898
0.822862
0.868592
0.890372
0.901061
0.906185
0.908505
0.90948
0.909857
0.909992
0.910036
0.91005
0.910054
0.910055
0.910055
0.910054
0.91005
0.910036
0.909992
0.909857
0.90948
0.908506
0.906186
0.901062
0.890375
0.868595
0.822865
0.715901
0.39592
0.395831
0.715814
0.822776
0.868504
0.890284
0.900972
0.906097
0.908417
0.909391
0.909768
0.909903
0.909948
0.909961
0.909965
0.909966
0.909966
0.909965
0.909961
0.909948
0.909903
0.909769
0.909392
0.908418
0.906098
0.900974
0.890287
0.868507
0.822779
0.715816
0.395832
0.395747
0.715729
0.822693
0.868422
0.890203
0.900891
0.906017
0.908337
0.909311
0.909688
0.909823
0.909867
0.909881
0.909885
0.909886
0.909886
0.909885
0.909881
0.909868
0.909823
0.909688
0.909311
0.908338
0.906018
0.900893
0.890205
0.868425
0.822696
0.715731
0.395748
0.395667
0.715643
0.822615
0.868347
0.890131
0.900823
0.90595
0.908271
0.909245
0.909622
0.909757
0.909801
0.909815
0.909819
0.90982
0.90982
0.909819
0.909815
0.909801
0.909757
0.909622
0.909245
0.908271
0.905951
0.900824
0.890134
0.86835
0.822618
0.715646
0.395667
0.395588
0.715557
0.822546
0.868288
0.890081
0.900778
0.905908
0.908231
0.909206
0.909584
0.909718
0.909763
0.909776
0.90978
0.909781
0.909781
0.90978
0.909776
0.909763
0.909718
0.909584
0.909206
0.908231
0.905909
0.900779
0.890083
0.868291
0.822549
0.715559
0.395589
0.395512
0.715473
0.822495
0.868261
0.89007
0.900779
0.905917
0.908243
0.909221
0.909599
0.909734
0.909778
0.909792
0.909795
0.909796
0.909796
0.909795
0.909792
0.909778
0.909734
0.909599
0.909221
0.908244
0.905918
0.900781
0.890073
0.868264
0.822498
0.715475
0.395513
0.395445
0.715401
0.822485
0.868296
0.890139
0.900871
0.906022
0.908356
0.909337
0.909717
0.909852
0.909897
0.90991
0.909914
0.909915
0.909915
0.909914
0.90991
0.909897
0.909852
0.909717
0.909337
0.908357
0.906023
0.900872
0.890141
0.868299
0.822488
0.715403
0.395446
0.395411
0.715365
0.82256
0.868453
0.890356
0.901127
0.906302
0.908649
0.909636
0.910018
0.910155
0.9102
0.910214
0.910218
0.910219
0.910219
0.910218
0.910214
0.9102
0.910155
0.910019
0.909636
0.908649
0.906303
0.901129
0.890358
0.868456
0.822563
0.715367
0.395411
0.395422
0.71541
0.822797
0.868829
0.890828
0.901662
0.906874
0.90924
0.910237
0.910624
0.910763
0.910809
0.910823
0.910827
0.910828
0.910828
0.910827
0.910823
0.910809
0.910763
0.910624
0.910237
0.909241
0.906875
0.901664
0.890831
0.868831
0.8228
0.715412
0.395422
0.395514
0.71562
0.82332
0.869564
0.891702
0.90262
0.90788
0.910272
0.911281
0.911674
0.911816
0.911863
0.911878
0.911882
0.911884
0.911884
0.911882
0.911878
0.911863
0.911816
0.911674
0.911281
0.910272
0.907881
0.902622
0.891704
0.869567
0.823323
0.715622
0.395515
0.395763
0.716141
0.824302
0.87082
0.893116
0.904122
0.909429
0.911846
0.912867
0.913266
0.91341
0.913459
0.913474
0.913479
0.91348
0.91348
0.913479
0.913474
0.913459
0.91341
0.913266
0.912867
0.911846
0.90943
0.904124
0.893118
0.870823
0.824305
0.716143
0.395764
0.396307
0.717177
0.8259
0.872669
0.895071
0.906121
0.911447
0.913872
0.914897
0.915298
0.915443
0.915492
0.915508
0.915512
0.915514
0.915514
0.915512
0.915508
0.915492
0.915443
0.915298
0.914897
0.913872
0.911448
0.906123
0.895074
0.872672
0.825903
0.717179
0.396307
0.397413
0.718895
0.828055
0.874856
0.897184
0.908158
0.913432
0.915827
0.916837
0.91723
0.917371
0.917417
0.917432
0.917435
0.917436
0.917436
0.917435
0.917432
0.917417
0.917371
0.91723
0.916837
0.915827
0.913433
0.90816
0.897187
0.874859
0.828058
0.718898
0.397414
0.399358
0.72087
0.829951
0.87633
0.898304
0.909044
0.914179
0.916499
0.91747
0.917842
0.917972
0.918012
0.918022
0.918023
0.918023
0.918023
0.918023
0.918022
0.918012
0.917972
0.917842
0.91747
0.9165
0.91418
0.909045
0.898307
0.876333
0.829954
0.720873
0.399359
0.404072
0.722644
0.830276
0.875539
0.896843
0.907203
0.912129
0.914334
0.915241
0.915577
0.915684
0.915711
0.915712
0.915708
0.915705
0.915705
0.915708
0.915712
0.915711
0.915684
0.915577
0.915241
0.914335
0.91213
0.907205
0.896846
0.875543
0.83028
0.722647
0.404074
0.393599
0.71068
0.817679
0.86351
0.885334
0.896004
0.901076
0.903332
0.904246
0.904574
0.904671
0.904688
0.904682
0.904674
0.904669
0.904669
0.904674
0.904682
0.904688
0.904671
0.904574
0.904247
0.903333
0.901077
0.896006
0.885336
0.863514
0.817682
0.710682
0.393599
0.391689
0.703741
0.810064
0.856458
0.878802
0.889804
0.895065
0.897424
0.898395
0.898756
0.898872
0.898901
0.898903
0.898899
0.898896
0.898896
0.898899
0.898903
0.898901
0.898872
0.898756
0.898395
0.897424
0.895066
0.889806
0.878805
0.856462
0.810069
0.703745
0.39169
0.395521
0.709132
0.815874
0.861468
0.883258
0.893986
0.899143
0.901482
0.902465
0.902844
0.902977
0.903019
0.903029
0.903031
0.90303
0.90303
0.903031
0.903029
0.903019
0.902977
0.902844
0.902465
0.901483
0.899144
0.893987
0.883261
0.861472
0.815877
0.709135
0.395522
0.394634
0.711214
0.819519
0.865299
0.886986
0.89761
0.902708
0.905021
0.905997
0.906377
0.906514
0.906559
0.906573
0.906576
0.906577
0.906577
0.906576
0.906573
0.906559
0.906514
0.906377
0.905997
0.905022
0.902708
0.897611
0.886988
0.865302
0.819522
0.711217
0.394635
0.395526
0.71353
0.821245
0.867109
0.888876
0.899538
0.904651
0.90697
0.907947
0.908328
0.908466
0.908512
0.908527
0.908531
0.908532
0.908532
0.908531
0.908527
0.908512
0.908466
0.908329
0.907948
0.90697
0.904652
0.89954
0.888879
0.867112
0.821248
0.713533
0.395526
0.395868
0.714502
0.821833
0.867709
0.889541
0.900249
0.905386
0.907715
0.908696
0.909078
0.909215
0.909261
0.909276
0.90928
0.909281
0.909281
0.90928
0.909276
0.909261
0.909215
0.909078
0.908696
0.907716
0.905387
0.900251
0.889544
0.867712
0.821837
0.714505
0.395869
0.396011
0.714812
0.821964
0.867809
0.889654
0.900379
0.905525
0.907858
0.908839
0.90922
0.909357
0.909403
0.909417
0.909421
0.909422
0.909422
0.909421
0.909417
0.909403
0.909357
0.90922
0.908839
0.907858
0.905526
0.90038
0.889657
0.867812
0.821967
0.714814
0.396012
0.396101
0.714959
0.821985
0.86778
0.889608
0.900325
0.905468
0.907799
0.908779
0.909159
0.909295
0.909341
0.909355
0.909359
0.90936
0.90936
0.909359
0.909355
0.909341
0.909295
0.909159
0.908779
0.907799
0.905469
0.900327
0.88961
0.867783
0.821988
0.714961
0.396102
0.396166
0.715061
0.821998
0.867748
0.889551
0.900256
0.905391
0.907718
0.908696
0.909075
0.909211
0.909256
0.90927
0.909274
0.909275
0.909275
0.909274
0.90927
0.909256
0.909211
0.909075
0.908696
0.907718
0.905392
0.900258
0.889554
0.867751
0.822001
0.715064
0.396167
0.396213
0.715136
0.822015
0.867734
0.889519
0.900212
0.90534
0.907663
0.908639
0.909017
0.909153
0.909198
0.909212
0.909216
0.909217
0.909217
0.909216
0.909212
0.909198
0.909153
0.909018
0.908639
0.907664
0.905341
0.900213
0.889521
0.867737
0.822018
0.715138
0.396214
0.396248
0.715189
0.822033