/*--------------------------------*- C++ -*----------------------------------*\
| =========                 |                                                 |
| \\      /  F ield         | OpenFOAM: The Open Source CFD Toolbox           |
|  \\    /   O peration     | Version:  2312                                  |
|   \\  /    A nd           | Website:  www.openfoam.com                      |
|    \\/     M anipulation  |                                                 |
\*---------------------------------------------------------------------------*/
FoamFile
{
    version     2.0;
    format      ascii;
    arch        "LSB;label=32;scalar=64";
    class       volScalarField;
    location    "0.01";
    object      nut.particles;
}
// * * * * * * * * * * * * * * * * * * * * * * * * * * * * * * * * * * * * * //

dimensions      [0 2 -1 0 0 0 0];

internalField   nonuniform List<scalar> 
6000
(
0.000501194
0.000126144
8.70489e-05
7.73055e-05
6.88031e-05
6.44212e-05
6.20335e-05
6.0599e-05
5.96648e-05
5.90243e-05
5.85754e-05
5.82644e-05
5.80538e-05
5.79234e-05
5.78615e-05
5.78618e-05
5.79237e-05
5.80544e-05
5.82651e-05
5.85757e-05
5.9024e-05
5.96641e-05
6.05981e-05
6.20324e-05
6.44199e-05
6.88026e-05
7.7305e-05
8.70484e-05
0.000126154
0.000501192
0.00120086
0.000873649
0.000663825
0.000536975
0.00046975
0.000440008
0.000427578
0.00042245
0.000420313
0.000419288
0.000418785
0.000418463
0.000418274
0.00041815
0.000418094
0.000418103
0.00041816
0.000418287
0.000418469
0.000418797
0.000419319
0.00042034
0.000422458
0.000427576
0.000440024
0.000469756
0.000536966
0.000663817
0.000873648
0.00120085
0.00396603
0.00490278
0.00448568
0.00394155
0.00359665
0.00341782
0.00334016
0.00330995
0.0033008
0.00329855
0.00329966
0.0033003
0.00330128
0.00330201
0.00330221
0.00330215
0.00330209
0.00330143
0.0033004
0.00329976
0.00329885
0.00330104
0.00331011
0.00334022
0.00341804
0.00359665
0.00394156
0.00448565
0.00490263
0.00396594
0.0067146
0.00795889
0.00804217
0.00776963
0.00747115
0.00726439
0.00714985
0.00709907
0.00707702
0.0070683
0.00706598
0.00706377
0.00706402
0.0070646
0.00706476
0.00706388
0.00706516
0.00706471
0.00706615
0.0070683
0.00706937
0.00707782
0.00710058
0.00715091
0.00726278
0.00746953
0.00776931
0.00804186
0.00795871
0.00671402
0.00813725
0.00900941
0.00931076
0.00932288
0.00922781
0.00913722
0.00906394
0.00903684
0.00901714
0.009011
0.00900654
0.00900267
0.00900367
0.00899952
0.00900125
0.0090014
0.00900335
0.00900231
0.00900839
0.00901402
0.00901325
0.00902034
0.00903987
0.00906635
0.00913143
0.00922654
0.00932061
0.00930969
0.00901063
0.00813607
0.00884366
0.00959763
0.0100025
0.0101468
0.0101729
0.0101668
0.010153
0.0101491
0.0101398
0.0101379
0.0101418
0.0101344
0.0101386
0.0101254
0.0101273
0.0101254
0.0101336
0.0101277
0.0101351
0.0101498
0.0101434
0.0101491
0.0101541
0.010157
0.0101664
0.0101814
0.0101416
0.0100011
0.00960188
0.00884345
0.009179
0.00995311
0.0104037
0.0106094
0.0106716
0.010706
0.0107274
0.0107393
0.0107369
0.010741
0.0107481
0.010748
0.0107564
0.0107518
0.0107505
0.0107239
0.0107487
0.0107452
0.0107448
0.0107628
0.0107605
0.0107532
0.0107539
0.010739
0.0107135
0.0106778
0.0105987
0.0103999
0.00995786
0.00918121
0.00933974
0.0101339
0.0106202
0.0107929
0.010853
0.010864
0.0108756
0.0109092
0.0108976
0.0109311
0.0109298
0.0109313
0.0109534
0.0109362
0.0109538
0.0109302
0.0109571
0.0109432
0.0109474
0.0109457
0.0109607
0.0109385
0.0109481
0.0109091
0.0108895
0.0108681
0.0107872
0.0106093
0.0101342
0.00934132
0.00940836
0.0101856
0.0107206
0.0108563
0.0109269
0.0109137
0.0109593
0.0109701
0.0109928
0.0110152
0.0110317
0.0110327
0.0110239
0.0109857
0.0110349
0.0110013
0.0110347
0.0110169
0.0110628
0.0110289
0.0110468
0.0110206
0.011005
0.0109807
0.0109981
0.0109426
0.0108812
0.0107112
0.0101825
0.00940857
0.00942967
0.0101596
0.0107636
0.0109265
0.0110072
0.0110097
0.0110501
0.0110781
0.0110817
0.0110677
0.0110818
0.0110626
0.0110787
0.0110693
0.0111161
0.0110666
0.0110682
0.0110799
0.0111032
0.0111188
0.0111241
0.0110773
0.011052
0.0110126
0.0109916
0.0110024
0.010941
0.0107578
0.0101554
0.00942795
0.00938604
0.0100579
0.0107552
0.0110055
0.0110717
0.0111375
0.0111089
0.011147
0.0111486
0.0111709
0.0111073
0.0111073
0.0111337
0.0112121
0.0111719
0.011164
0.0111627
0.0111778
0.011151
0.0111728
0.0111721
0.0111529
0.0111579
0.0111358
0.0110678
0.01105
0.0109897
0.0107489
0.0100544
0.00938432
0.00932006
0.00992043
0.0106928
0.0110691
0.0111248
0.0111608
0.0111423
0.0111699
0.0111794
0.0111648
0.0111853
0.0111928
0.0112475
0.011244
0.0112217
0.0112909
0.0112934
0.0112878
0.0112468
0.0111826
0.0112551
0.0112172
0.0112665
0.0112382
0.0111743
0.011142
0.0110495
0.0106929
0.00991808
0.00931873
0.00923046
0.00979215
0.0105011
0.0110791
0.0111564
0.0111539
0.0111748
0.011167
0.0112061
0.0112609
0.0112836
0.0113282
0.0112896
0.0113151
0.0112685
0.0112864
0.0113161
0.0112792
0.0113219
0.0112697
0.0112573
0.0112828
0.0112386
0.0112282
0.0112794
0.0111929
0.011116
0.0105218
0.00979187
0.00923048
0.00912685
0.00966327
0.0102408
0.0110162
0.0111614
0.0111735
0.0112034
0.0112862
0.0112956
0.0112446
0.011327
0.0112951
0.0113321
0.0112723
0.0113566
0.0112841
0.0112817
0.0112825
0.0113174
0.011337
0.0113163
0.0112544
0.011246
0.0112268
0.0112141
0.0112142
0.0109809
0.0102526
0.00966382
0.00912737
0.00901747
0.00952785
0.0100459
0.0106141
0.0111259
0.0111991
0.0112851
0.0112298
0.0112923
0.0113375
0.0112428
0.011268
0.0112604
0.0113595
0.0112912
0.0112839
0.0112828
0.0112881
0.0112843
0.0113479
0.0112773
0.0112828
0.011259
0.0112228
0.0112083
0.0111549
0.0106192
0.0100465
0.00952821
0.00901795
0.00889568
0.00939137
0.00988506
0.0102058
0.0106361
0.0109226
0.0110487
0.011249
0.0111357
0.0111564
0.0111301
0.0112375
0.0111485
0.0111016
0.0111082
0.0112957
0.0112284
0.0111818
0.0108764
0.0108496
0.0107283
0.0107407
0.0108338
0.0107806
0.010445
0.0104015
0.0102023
0.00988334
0.00939163
0.00889828
0.00874643
0.00927446
0.00973703
0.0100083
0.0101203
0.00998522
0.00991534
0.00995939
0.00993413
0.00993001
0.009934
0.010004
0.00993782
0.00992699
0.00994952
0.0100211
0.00998201
0.00997533
0.00994736
0.00994802
0.00994293
0.00997306
0.00997314
0.00994087
0.00999567
0.0100773
0.010002
0.00973584
0.00927456
0.00875417
0.00866598
0.00918593
0.00960751
0.00986272
0.00997394
0.00990773
0.00984614
0.00986727
0.00984254
0.00984163
0.00984178
0.00985525
0.00984549
0.00983698
0.00985689
0.0098874
0.00988961
0.00988505
0.00986215
0.0098656
0.00986053
0.00989068
0.00989017
0.00986669
0.00991987
0.00995499
0.00985873
0.00960592
0.0091853
0.00866802
0.00861143
0.00910601
0.00950039
0.00974138
0.00986254
0.00984415
0.00980704
0.00981826
0.009793
0.00980934
0.00979509
0.00980326
0.00979048
0.0097881
0.00979671
0.00982098
0.00984198
0.00984231
0.00982461
0.00984193
0.00982678
0.00984473
0.00984866
0.0098269
0.00986618
0.00985733
0.00974251
0.00949824
0.00910573
0.00861207
0.00856003
0.00902525
0.00940275
0.0096552
0.00977649
0.00979015
0.00981855
0.00981127
0.009825
0.00980525
0.00982074
0.00980609
0.00982103
0.00983233
0.00983678
0.00983922
0.00985241
0.0098422
0.00985335
0.00983503
0.00986151
0.00984275
0.00986288
0.00986457
0.00982762
0.00978857
0.00965895
0.00940433
0.00902538
0.00856047
0.00850557
0.0089316
0.0092978
0.00956527
0.00975372
0.00982663
0.00987619
0.00987037
0.00988985
0.00988502
0.00989231
0.00985499
0.00986291
0.00987848
0.0098725
0.00986651
0.00989396
0.0099011
0.00994141
0.00994438
0.00996373
0.00990743
0.00993609
0.00992479
0.00989074
0.00980234
0.00956938
0.00929932
0.00893167
0.00850539
0.0084454
0.00882453
0.0091793
0.00940422
0.00973103
0.00985119
0.00993216
0.00990681
0.00993355
0.00991594
0.00991814
0.00991776
0.00991506
0.00992327
0.00991407
0.00990777
0.00993419
0.00995559
0.00997249
0.00997154
0.00998415
0.00997382
0.00993122
0.00997822
0.00991808
0.0097324
0.00940429
0.00917972
0.00882446
0.00844446
0.00838311
0.00872708
0.00906482
0.00923175
0.00944565
0.00989007
0.00987057
0.00989751
0.00987575
0.00986874
0.00989262
0.00987323
0.00986503
0.00985952
0.00988255
0.00991506
0.00992045
0.00992457
0.00992199
0.00993243
0.00993338
0.00992273
0.0099291
0.00990296
0.00991238
0.00945914
0.00920858
0.00906478
0.00872672
0.00838155
0.00832331
0.00864162
0.0089587
0.00910676
0.00910367
0.00939341
0.0098848
0.00988365
0.00986242
0.00988822
0.00985028
0.00988878
0.0098823
0.00989111
0.00988427
0.00990378
0.00987784
0.00992157
0.00988605
0.00991679
0.00988646
0.00993576
0.00990297
0.00991326
0.00944461
0.00901779
0.00906311
0.00895795
0.00864061
0.0083211
0.00826746
0.00856543
0.0088599
0.00900414
0.00900794
0.00891584
0.00918985
0.00899766
0.00945198
0.00936392
0.0094585
0.00925822
0.00937965
0.00930802
0.0092958
0.00899594
0.00889473
0.00900342
0.00921357
0.00913999
0.00922301
0.00931824
0.00893334
0.00896593
0.00887282
0.0088669
0.00896964
0.00885942
0.00856433
0.00826492
0.00820864
0.0085008
0.00877063
0.00891043
0.00893696
0.00888857
0.00888762
0.00885762
0.00888992
0.00887471
0.00888596
0.00888025
0.00888031
0.0088632
0.00887408
0.00884388
0.00882842
0.00885105
0.00887884
0.00887493
0.0088662
0.00885682
0.0088231
0.00883283
0.00881665
0.00884335
0.00888769
0.00877037
0.00849966
0.00820594
0.00812426
0.00844326
0.00869349
0.00882766
0.00887197
0.00884091
0.00883471
0.00881601
0.00883284
0.00882013
0.00882933
0.00882558
0.00882457
0.0088089
0.00881943
0.00879322
0.00878724
0.00879945
0.00882413
0.00882158
0.00881315
0.00880403
0.00879095
0.00879002
0.0087844
0.00879943
0.00881484
0.00869387
0.00844247
0.00812162
0.00806053
0.00839128
0.00863173
0.0087599
0.00881687
0.00880206
0.00880292
0.00881041
0.00879373
0.00879294
0.00879574
0.00879116
0.00879071
0.00878242
0.00878696
0.00878252
0.00878934
0.00878292
0.00878755
0.00879089
0.00878954
0.00878793
0.00880481
0.00880784
0.00878658
0.00876421
0.00875984
0.00863318
0.00839113
0.00806062
0.00802149
0.0083318
0.00856647
0.00872552
0.00878601
0.00881822
0.0088223
0.00884165
0.00882661
0.00881786
0.00881018
0.00881237
0.00881009
0.00882539
0.00880512
0.00881097
0.00882517
0.00880697
0.00880783
0.00882029
0.00881354
0.00882614
0.0088411
0.00883369
0.00883271
0.00879336
0.00874355
0.00856895
0.00833251
0.00802238
0.0079829
0.00825792
0.00848774
0.0086714
0.0088058
0.00884575
0.00887299
0.00891646
0.00886202
0.00886908
0.00885302
0.00884753
0.00884964
0.00885819
0.00885373
0.00887062
0.00889739
0.00885685
0.00884192
0.00884939
0.00886717
0.00888221
0.00889983
0.00887231
0.00885962
0.00883242
0.00871049
0.00848825
0.00825961
0.00798416
0.0079422
0.00818922
0.00840562
0.00854867
0.00881485
0.00889914
0.00891399
0.00886598
0.00891445
0.00889588
0.00888316
0.00887818
0.00887138
0.0088837
0.00887542
0.00887027
0.0088391
0.00889419
0.00886981
0.0088814
0.00889182
0.00890257
0.00886525
0.00888244
0.00883848
0.00885767
0.00862339
0.00840803
0.00819228
0.00794407
0.007902
0.0081278
0.00833186
0.00842223
0.00861273
0.00885732
0.0088755
0.0088917
0.00885693
0.00886205
0.00886212
0.00885068
0.00885403
0.00883663
0.0088623
0.00883775
0.00886973
0.00884306
0.00884917
0.00884261
0.00885853
0.00885324
0.00888301
0.00885379
0.00883844
0.00882548
0.00846303
0.00833435
0.00813061
0.00790344
0.00786419
0.0080718
0.0082618
0.00833873
0.00831842
0.0085678
0.00831724
0.00860581
0.00835077
0.00856448
0.00863294
0.00866314
0.00865863
0.00872911
0.00861236
0.00884883
0.00882159
0.00871474
0.00868302
0.00867233
0.00845324
0.00855605
0.00864597
0.00851083
0.00870339
0.00850267
0.00835394
0.00826441
0.00807358
0.0078649
0.00782975
0.00802123
0.0081974
0.00827227
0.00819144
0.00817163
0.0081575
0.00817827
0.00816051
0.00817871
0.00817209
0.00818741
0.00817083
0.00818535
0.00815377
0.00819659
0.00819819
0.00816262
0.00820698
0.00816214
0.00817439
0.00817269
0.00818023
0.00819006
0.00817957
0.00820392
0.00828095
0.00819888
0.00802208
0.00782984
0.00779804
0.00797873
0.00814031
0.00821353
0.00818268
0.0081507
0.0081312
0.00814065
0.00813141
0.00814067
0.00813413
0.00814714
0.00813256
0.00814484
0.00812678
0.00815401
0.00815079
0.00813469
0.00816617
0.00813588
0.00813714
0.00813464
0.00814076
0.0081528
0.00815775
0.00818854
0.00821939
0.00814055
0.00797936
0.00779787
0.00776373
0.00794312
0.00809139
0.00816233
0.00815101
0.00812427
0.00811244
0.00812849
0.00811485
0.00812569
0.00812367
0.00812238
0.00812438
0.00812348
0.00810818
0.00812626
0.00812267
0.00811158
0.00813429
0.00812241
0.0081231
0.00812172
0.00812134
0.00813776
0.00813279
0.00815764
0.00816496
0.00809043
0.00794316
0.00776485
0.00770753
0.00790883
0.00805018
0.0081206
0.00812498
0.00812855
0.00813125
0.00811257
0.00812933
0.00812612
0.00812808
0.00812971
0.00811834
0.00812112
0.00812355
0.0081214
0.00813019
0.00811833
0.00812504
0.00812056
0.0081451
0.0081318
0.00813546
0.00813916
0.00814258
0.00813091
0.00812048
0.00804919
0.007909
0.0077153
0.00767341
0.00787198
0.00800924
0.00809965
0.00813645
0.00815228
0.00816274
0.00817533
0.0081733
0.00818178
0.00818523
0.00815253
0.00817724
0.00816135
0.0081615
0.00815139
0.00814778
0.0081477
0.00814098
0.00817187
0.00817637
0.00818268
0.00816776
0.00817398
0.00817151
0.00814517
0.0080925
0.00800957
0.00787194
0.00767436
0.00764649
0.00782626
0.00796384
0.00808016
0.00815689
0.00817968
0.00820297
0.00816253
0.00821378
0.00817174
0.00818233
0.00819992
0.00818612
0.00816601
0.00820686
0.00816058
0.00818416
0.00819017
0.00816329
0.00819682
0.00819719
0.00818622
0.00820151
0.00818107
0.00820162
0.00816934
0.00806076
0.0079633
0.00782591
0.00764582
0.00761933
0.00777769
0.00790749
0.00798409
0.00818571
0.00820251
0.00816695
0.00820092
0.00816366
0.00819749
0.00818026
0.00816986
0.0081876
0.0081656
0.00816161
0.00820072
0.0081709
0.00817168
0.00818746
0.00818678
0.00817145
0.00819842
0.00816987
0.00819467
0.00817186
0.00818061
0.00797749
0.00790795
0.00777767
0.00761841
0.0075935
0.00773732
0.00785886
0.00789466
0.00815253
0.00816493
0.00818691
0.00816104
0.00817857
0.00816667
0.00817001
0.00818528
0.00816838
0.00815969
0.00816679
0.00816546
0.0081885
0.00816647
0.00819819
0.00817128
0.00820191
0.00816689
0.0081853
0.0081791
0.00816856
0.00810803
0.00789293
0.00785803
0.00773715
0.00759217
0.00756886
0.00770047
0.00781204
0.00782959
0.00786725
0.00806124
0.00815388
0.00820172
0.00816349
0.00819189
0.00818327
0.0081665
0.0081726
0.00818485
0.00816118
0.00813917
0.00815853
0.00818028
0.00816531
0.00819281
0.00816232
0.00813926
0.00816964
0.00811968
0.00805062
0.0077885
0.00781283
0.00781141
0.00770032
0.0075673
0.00754627
0.00766703
0.00776958
0.00772921
0.00770334
0.00770392
0.00794666
0.00789154
0.00798695
0.00778723
0.0077398
0.00778187
0.00779007
0.00785709
0.00790448
0.00773449
0.00778231
0.00782879
0.00773085
0.00774661
0.00793392
0.00773411
0.00779164
0.00772493
0.00772378
0.00773358
0.00777586
0.00777052
0.00766729
0.00754469
0.00752581
0.00763805
0.00773291
0.00771413
0.00769522
0.00768151
0.00770441
0.00771986
0.00773134
0.00771953
0.00769744
0.00771427
0.00771529
0.00773856
0.00773291
0.00770896
0.00771478
0.00771896
0.00770422
0.00771452
0.00773408
0.00771008
0.00772735
0.00770396
0.00770365
0.00772367
0.00774468
0.00773351
0.00763849
0.00752411
0.00750618
0.00761395
0.00770048
0.00769509
0.0076797
0.00767642
0.00768402
0.00769644
0.00770625
0.00769623
0.00768536
0.00769149
0.00769893
0.00771472
0.00770859
0.00769152
0.00769252
0.00769617
0.00769099
0.00769301
0.00770954
0.00769405
0.00770348
0.00768639
0.0076888
0.00770336
0.00771927
0.00770153
0.00761437
0.00750424
0.00748031
0.00759338
0.00767435
0.00767935
0.00767938
0.00767717
0.0076719
0.00768332
0.00768744
0.00769271
0.00768867
0.00769593
0.00769389
0.00769811
0.00769385
0.00770569
0.00769478
0.00770116
0.00769462
0.00770453
0.00769382
0.00770039
0.00768715
0.00769685
0.00769116
0.00769491
0.00769752
0.007675
0.00759309
0.00747752
0.00744861
0.00757053
0.00765276
0.00768395
0.00769079
0.00770734
0.00767902
0.0076827
0.00769331
0.00770327
0.00771506
0.0077049
0.00771646
0.00770608
0.0077074
0.00771417
0.00771967
0.00771043
0.00772886
0.00770974
0.00770636
0.00771152
0.00770403
0.00771366
0.00771908
0.00770949
0.00769036
0.00765184
0.00757058
0.00744838
0.00743006
0.00754162
0.00762377
0.00770137
0.00772371
0.00771315
0.00770097
0.00770844
0.00770398
0.00773719
0.00774103
0.00774485
0.0077287
0.00771985
0.00771552
0.00775102
0.00773146
0.00775144
0.00773391
0.00775091
0.00771314
0.00776411
0.00771296
0.00775023
0.00772009
0.00772169
0.00769974
0.00762323
0.00754122
0.00743005
0.00741341
0.00751166
0.00758936
0.00772163
0.00770982
0.00770953
0.0077171
0.00770653
0.00774397
0.00773114
0.00774272
0.00772607
0.00774611
0.00773205
0.00775283
0.00771615
0.00774297
0.00772771
0.00773997
0.0077251
0.00776396
0.00771676
0.00776632
0.00772332
0.00772937
0.00772927
0.00770123
0.00758825
0.00751151
0.00741331
0.00739717
0.00748669
0.0075575
0.00769559
0.00771253
0.00769915
0.00770123
0.00772644
0.0077159
0.00772968
0.00772367
0.00773301
0.00771852
0.00772681
0.0077141
0.00774142
0.00771652
0.0077381
0.00771755
0.00773956
0.00772186
0.00773766
0.00771486
0.00773139
0.00771481
0.00772124
0.00765824
0.00755704
0.0074866
0.00739696
0.0073811
0.00746298
0.00752789
0.00760274
0.00768755
0.00771168
0.00769668
0.00769447
0.00771073
0.00772006
0.00773716
0.00772107
0.00773288
0.00771826
0.00772565
0.00771195
0.00774542
0.00771286
0.00774419
0.00771435
0.00773496
0.00771165
0.00772421
0.00770988
0.00773615
0.00771694
0.00756148
0.00752759
0.00746301
0.00738088
0.00736582
0.00744078
0.00749953
0.00749364
0.00755947
0.00768987
0.00769821
0.00760708
0.00760379
0.00762662
0.00758555
0.00760437
0.00755498
0.00752319
0.00756739
0.00765662
0.00756067
0.00760959
0.00759775
0.00765778
0.00755622
0.00765761
0.00758724
0.00766004
0.0076522
0.00758563
0.0074832
0.00749991
0.0074406
0.00736568
0.00735196
0.00742089
0.00747534
0.00745548
0.00744191
0.00753115
0.0074558
0.007446
0.00744369
0.00744993
0.00744455
0.00744079
0.00744296
0.00743827
0.00744191
0.00744424
0.00744732
0.00744211
0.00744452
0.00744629
0.00744343
0.00743918
0.00744315
0.00743565
0.00743864
0.00744008
0.00745044
0.00747555
0.00742087
0.00735192
0.00733937
0.00740318
0.00745354
0.00744171
0.0074308
0.00744182
0.00742801
0.0074306
0.00742992
0.00743465
0.00743027
0.00742605
0.00742815
0.00742568
0.00742714
0.00742868
0.00743145
0.00742672
0.0074285
0.00743024
0.00742768
0.00742372
0.00742747
0.00742059
0.00742326
0.00743014
0.00744182
0.00745373
0.00740323
0.00733934
0.0073277
0.00738768
0.00743415
0.00743041
0.00742148
0.00742765
0.00742152
0.00742401
0.00742149
0.00742884
0.00742532
0.00742535
0.00742607
0.00742554
0.00742479
0.00742309
0.00741944
0.00742098
0.00741719
0.00742166
0.00741771
0.00742031
0.00741888
0.00741966
0.00741867
0.00742074
0.00742976
0.00743416
0.00738773
0.00732765
0.00731663
0.00737443
0.00741716
0.00742001
0.00742459
0.00742128
0.00742443
0.00742145
0.00742802
0.00742561
0.00743522
0.00742598
0.00743628
0.00742667
0.00743462
0.00742605
0.00742661
0.00741993
0.00742445
0.00741854
0.00742703
0.00742257
0.00742787
0.00741586
0.007427
0.0074176
0.00741982
0.00741729
0.00737456
0.00731651
0.00730414
0.00736375
0.00740402
0.00742635
0.00743388
0.00743125
0.00744065
0.00744727
0.00744078
0.00744831
0.00743584
0.00745906
0.00743775
0.00745971
0.0074434
0.00744922
0.00742715
0.007444
0.00742166
0.00743779
0.00742533
0.00745418
0.00742751
0.00745218
0.00743977
0.00743368
0.00742232
0.00740462
0.00736331
0.0073038
0.00728588
0.00734679
0.00739097
0.00743752
0.00745829
0.00744094
0.0074606
0.00744303
0.00746023
0.00743858
0.00745806
0.0074422
0.00745704
0.00744001
0.00745416
0.00743554
0.00745717
0.00743684
0.00745699
0.00743892
0.00745522
0.00743295
0.00745436
0.00743272
0.00745008
0.00743971
0.00743203
0.00738968
0.00734598
0.00728573
0.00727336
0.00732751
0.00736696
0.00744852
0.00744387
0.00745415
0.00744042
0.00745619
0.00744335
0.00745903
0.00744014
0.00744768
0.00743909
0.00745236
0.00743763
0.00745092
0.00743647
0.0074525
0.00743379
0.00745852
0.0074334
0.00744341
0.00743278
0.00744491
0.00743511
0.00745122
0.00743858
0.00736667
0.00732746
0.00727338
0.00726265
0.0073129
0.00734892
0.00742318
0.00744464
0.00743578
0.00744637
0.00744237
0.00745306
0.00744595
0.00746199
0.00744477
0.00745987
0.00744198
0.00745988
0.00744136
0.00744718
0.00744007
0.007449
0.00743672
0.0074486
0.00743489
0.00745113
0.00743554
0.00744902
0.00743341
0.00743259
0.00734855
0.00731279
0.0072626
0.00725206
0.00729877
0.0073318
0.00735028
0.00742816
0.00744417
0.00743788
0.00745401
0.00744411
0.00746317
0.00744465
0.00747171
0.00744514
0.00746722
0.00744114
0.00746203
0.00744126
0.00745746
0.00743993
0.0074528
0.00743646
0.00746881
0.00743595
0.0074643
0.0074333
0.0074305
0.00736697
0.0073311
0.00729853
0.00725201
0.00724225
0.00728566
0.0073163
0.00733015
0.00741444
0.00737446
0.00738653
0.00740004
0.00740093
0.00738405
0.00743976
0.00743149
0.00745099
0.00743796
0.00744166
0.00743068
0.00746243
0.0074378
0.00746045
0.00741295
0.00745936
0.0074303
0.00745913
0.00742478
0.00740961
0.00733772
0.00732973
0.00731577
0.00728549
0.00724219
0.00723308
0.00727343
0.00730155
0.00731322
0.0073212
0.00732159
0.00732241
0.00732335
0.00732302
0.00732298
0.00732439
0.00732471
0.00732487
0.00733035
0.00732471
0.00732483
0.00733451
0.00734315
0.00734993
0.00732385
0.00732843
0.00732427
0.00732626
0.00732353
0.00732204
0.00731849
0.00731321
0.00730135
0.00727337
0.00723306
0.00722445
0.00726207
0.00728802
0.00729864
0.00730347
0.00730496
0.00730552
0.00730581
0.00730581
0.00730588
0.00730608
0.00730634
0.0073063
0.00730648
0.0073063
0.00730645
0.00730652
0.00730671
0.00730652
0.00730615
0.00730623
0.00730627
0.00730616
0.0073058
0.00730487
0.00730296
0.00729848
0.00728793
0.00726205
0.00722445
0.00721626
0.00725135
0.00727528
0.00728484
0.00728889
0.00729026
0.00729072
0.00729095
0.00729104
0.00729104
0.00729111
0.00729118
0.00729117
0.00729123
0.00729117
0.00729125
0.00729122
0.0072913
0.0072912
0.00729114
0.00729112
0.00729107
0.00729094
0.00729074
0.00729015
0.00728865
0.00728479
0.00727531
0.00725136
0.00721626
0.00720848
0.00724109
0.00726336
0.00727206
0.00727557
0.00727679
0.00727717
0.00727731
0.00727739
0.00727743
0.00727743
0.00727742
0.00727742
0.00727744
0.00727744
0.00727747
0.00727745
0.00727752
0.00727752
0.00727746
0.00727747
0.00727748
0.0072774
0.00727725
0.00727679
0.00727551
0.00727204
0.00726335
0.00724111
0.00720852
0.00720104
0.00723157
0.0072522
0.0072602
0.00726334
0.00726443
0.00726479
0.00726489
0.0072649
0.00726489
0.00726487
0.00726488
0.00726487
0.00726488
0.00726489
0.0072649
0.00726491
0.00726494
0.00726495
0.00726497
0.00726498
0.007265
0.00726496
0.00726485
0.00726447
0.00726334
0.00726018
0.00725218
0.00723155
0.00720099
0.00719419
0.00722256
0.00724168
0.007249
0.00725183
0.0072528
0.00725309
0.00725317
0.00725318
0.00725315
0.00725312
0.00725308
0.00725305
0.00725305
0.00725305
0.00725306
0.00725311
0.00725319
0.00725322
0.00725324
0.00725325
0.00725326
0.00725325
0.00725316
0.00725284
0.00725184
0.00724898
0.00724165
0.00722253
0.00719416
0.00718771
0.00721405
0.00723171
0.0072384
0.00724094
0.00724179
0.00724203
0.00724209
0.00724209
0.00724207
0.00724204
0.00724199
0.00724197
0.00724196
0.00724197
0.00724197
0.007242
0.00724208
0.00724211
0.00724213
0.00724215
0.00724215
0.00724217
0.0072421
0.00724184
0.00724097
0.00723839
0.0072317
0.00721404
0.0071877
0.00718153
0.00720599
0.00722226
0.00722835
0.00723063
0.00723135
0.00723157
0.0072316
0.00723158
0.00723156
0.00723155
0.00723152
0.00723151
0.00723151
0.00723151
0.00723151
0.00723153
0.00723157
0.00723159
0.00723161
0.00723162
0.00723162
0.00723165
0.00723162
0.0072314
0.00723066
0.00722836
0.00722227
0.00720599
0.00718153
0.00717564
0.00719829
0.00721327
0.00721879
0.00722083
0.00722143
0.00722161
0.00722162
0.00722159
0.00722157
0.00722156
0.00722156
0.00722158
0.00722157
0.00722157
0.00722159
0.00722157
0.00722158
0.00722159
0.00722159
0.00722158
0.00722158
0.00722158
0.00722155
0.0072214
0.0072208
0.0072188
0.00721326
0.0071983
0.00717564
0.00717001
0.00719094
0.00720469
0.00720969
0.00721143
0.00721198
0.00721212
0.00721208
0.00721203
0.00721203
0.00721204
0.00721207
0.00721209
0.0072121
0.00721209
0.0072121
0.00721208
0.00721204
0.00721201
0.00721202
0.00721195
0.00721194
0.00721195
0.00721198
0.00721193
0.00721146
0.00720972
0.00720471
0.00719095
0.00717
0.00716459
0.00718389
0.00719653
0.00720098
0.00720246
0.00720279
0.00720289
0.00720282
0.00720283
0.00720288
0.00720301
0.00720312
0.00720313
0.00720316
0.00720313
0.00720315
0.0072031
0.00720287
0.00720282
0.00720275
0.00720274
0.00720278
0.00720279
0.00720285
0.0072028
0.00720244
0.00720099
0.00719652
0.00718388
0.0071646
0.00715931
0.00717715
0.0071887
0.00719269
0.00719371
0.00719347
0.00719359
0.00719321
0.00719328
0.00719305
0.00719307
0.00719312
0.00719291
0.00719306
0.00719296
0.0071931
0.00719302
0.007193
0.00719308
0.00719306
0.00719311
0.00719328
0.00719316
0.00719341
0.00719346
0.00719354
0.00719267
0.00718868
0.00717714
0.00715934
0.00715427
0.00717075
0.00718087
0.00718444
0.00718508
0.00718505
0.00718499
0.0071848
0.00718473
0.00718471
0.00718478
0.00718474
0.00718469
0.00718477
0.00718467
0.00718474
0.00718465
0.0071847
0.00718471
0.00718465
0.00718472
0.00718475
0.00718474
0.00718498
0.00718506
0.00718509
0.00718441
0.00718087
0.00717074
0.00715427
0.00714944
0.00716437
0.00717392
0.00717692
0.00717752
0.00717751
0.00717738
0.00717722
0.00717716
0.0071771
0.0071771
0.00717707
0.00717708
0.00717707
0.00717707
0.00717706
0.00717705
0.00717704
0.00717703
0.00717705
0.00717705
0.00717713
0.0071772
0.00717735
0.00717747
0.00717751
0.00717693
0.00717393
0.00716439
0.00714944
0.00714443
0.00715855
0.00716726
0.00716986
0.00717043
0.00717036
0.00717022
0.00717007
0.00716999
0.00716994
0.00716992
0.00716991
0.00716992
0.00716989
0.00716989
0.00716988
0.00716988
0.00716986
0.00716987
0.00716987
0.00716991
0.00716996
0.00717006
0.00717021
0.00717033
0.00717043
0.00716985
0.00716724
0.00715854
0.00714439
0.00714024
0.00715318
0.00716107
0.00716335
0.00716379
0.00716368
0.0071635
0.00716337
0.00716328
0.00716323
0.00716321
0.00716319
0.00716317
0.00716317
0.00716314
0.00716316
0.00716314
0.00716314
0.00716316
0.00716316
0.00716321
0.00716325
0.00716335
0.00716349
0.00716366
0.00716379
0.00716334
0.00716107
0.00715318
0.00714025
0.00713634
0.00714815
0.00715528
0.00715726
0.00715756
0.00715741
0.00715719
0.00715703
0.00715691
0.00715688
0.00715686
0.00715684
0.00715681
0.00715682
0.0071568
0.00715681
0.00715679
0.00715681
0.00715682
0.00715681
0.00715686
0.00715689
0.007157
0.00715717
0.00715739
0.00715758
0.00715725
0.00715529
0.00714816
0.00713636
0.0071326
0.00714343
0.00714986
0.00715143
0.00715165
0.00715147
0.00715123
0.00715106
0.00715095
0.0071509
0.00715088
0.00715086
0.00715082
0.00715083
0.0071508
0.00715082
0.00715079
0.00715082
0.00715084
0.00715084
0.00715089
0.00715093
0.00715105
0.00715123
0.00715147
0.00715165
0.00715143
0.00714987
0.00714344
0.00713261
0.00712895
0.00713884
0.00714456
0.00714582
0.00714597
0.00714578
0.00714554
0.00714537
0.00714527
0.00714522
0.00714517
0.00714516
0.00714513
0.00714512
0.0071451
0.00714511
0.0071451
0.00714511
0.00714513
0.00714515
0.0071452
0.00714525
0.00714536
0.00714555
0.00714579
0.00714598
0.00714582
0.00714453
0.00713886
0.00712896
0.00712538
0.00713442
0.00713921
0.00714041
0.00714051
0.00714033
0.00714007
0.00713991
0.00713981
0.00713975
0.0071397
0.00713967
0.00713966
0.00713963
0.00713963
0.00713961
0.00713962
0.00713963
0.00713965
0.00713968
0.00713973
0.0071398
0.0071399
0.00714007
0.00714034
0.00714053
0.00714042
0.00713922
0.0071344
0.00712539
0.00712187
0.0071298
0.00713414
0.00713516
0.00713529
0.00713513
0.00713483
0.00713471
0.00713457
0.00713453
0.00713443
0.00713442
0.00713443
0.00713437
0.0071344
0.00713435
0.00713439
0.00713437
0.0071344
0.00713443
0.0071345
0.00713455
0.00713471
0.00713483
0.00713512
0.00713532
0.00713518
0.00713414
0.00712979
0.00712188
0.00711839
0.00712571
0.0071292
0.00712996
0.00712973
0.00712918
0.00712848
0.00712859
0.00712815
0.00712834
0.00712796
0.00712808
0.00712818
0.00712797
0.00712818
0.00712786
0.00712817
0.00712803
0.00712815
0.00712807
0.00712826
0.00712809
0.00712872
0.00712856
0.00712916
0.00712981
0.00712996
0.0071292
0.00712566
0.00711839
0.00711452
0.00712107
0.00712365
0.00712412
0.0071229
0.00712224
0.00712179
0.00712156
0.00712135
0.0071213
0.00712121
0.00712119
0.00712118
0.00712114
0.00712119
0.00712115
0.00712118
0.00712117
0.0071212
0.00712122
0.00712131
0.00712136
0.00712159
0.0071218
0.00712224
0.00712291
0.00712409
0.00712363
0.00712107
0.00711455
0.00711096
0.00711596
0.0071187
0.0071184
0.00711755
0.00711673
0.0071162
0.00711593
0.00711573
0.00711565
0.00711558
0.00711556
0.00711555
0.00711552
0.00711556
0.00711554
0.00711554
0.00711554
0.00711557
0.00711558
0.00711566
0.00711574
0.00711595
0.00711622
0.00711674
0.00711756
0.00711843
0.00711872
0.00711594
0.00711099
0.00710536
0.00711075
0.00711295
0.00711233
0.00711117
0.00711011
0.00710945
0.00710908
0.00710888
0.0071088
0.00710871
0.00710871
0.0071087
0.00710869
0.00710872
0.00710872
0.0071087
0.00710871
0.00710872
0.00710872
0.00710881
0.00710889
0.00710909
0.00710947
0.00711011
0.00711117
0.00711233
0.00711296
0.00711076
0.00710538
0.00710001
0.00710429
0.00710559
0.00710429
0.00710257
0.00710115
0.0071003
0.00709982
0.0070996
0.0070995
0.00709942
0.00709941
0.00709939
0.00709939
0.00709939
0.0070994
0.00709938
0.0070994
0.00709941
0.00709943
0.0070995
0.00709961
0.00709983
0.00710032
0.00710116
0.00710259
0.00710429
0.00710561
0.0071043
0.00710001
0.00709206
0.00709506
0.00709455
0.00709157
0.0070887
0.00708651
0.00708518
0.00708444
0.00708405
0.00708392
0.00708381
0.0070838
0.00708378
0.00708376
0.00708377
0.00708377
0.00708377
0.00708378
0.0070838
0.00708382
0.00708392
0.00708406
0.00708444
0.0070852
0.00708651
0.00708873
0.0070916
0.00709456
0.00709507
0.00709207
0.0070779
0.00707845
0.00707491
0.00706883
0.0070632
0.00705923
0.00705682
0.00705548
0.00705478
0.00705448
0.0070543
0.00705426
0.0070542
0.00705417
0.00705417
0.00705418
0.00705416
0.00705421
0.00705425
0.00705431
0.00705448