/*--------------------------------*- C++ -*----------------------------------*\
| =========                 |                                                 |
| \\      /  F ield         | OpenFOAM: The Open Source CFD Toolbox           |
|  \\    /   O peration     | Version:  2312                                  |
|   \\  /    A nd           | Website:  www.openfoam.com                      |
|    \\/     M anipulation  |                                                 |
\*---------------------------------------------------------------------------*/
FoamFile
{
    version     2.0;
    format      ascii;
    arch        "LSB;label=32;scalar=64";
    class       volScalarField;
    location    "0.01";
    object      nut.air;
}
// * * * * * * * * * * * * * * * * * * * * * * * * * * * * * * * * * * * * * //

dimensions      [0 2 -1 0 0 0 0];

internalField   nonuniform List<scalar> 
6000
(
0.000532634
0.0048259
0.00796619
0.00868456
0.00889508
0.00896915
0.00899655
0.00900618
0.00900913
0.00900975
0.00900968
0.00900946
0.00900927
0.00900914
0.00900907
0.00900907
0.00900913
0.00900927
0.00900946
0.00900967
0.00900975
0.00900912
0.00900618
0.00899655
0.00896915
0.00889509
0.00868457
0.0079662
0.00482591
0.000532634
0.000437395
0.00308088
0.00610673
0.00784216
0.00860411
0.00893331
0.00906728
0.00911777
0.00913495
0.00913993
0.00914092
0.00914078
0.00914046
0.0091402
0.00914006
0.00914006
0.00914019
0.00914045
0.00914078
0.00914091
0.00913992
0.00913494
0.00911777
0.00906729
0.00893333
0.00860414
0.0078422
0.00610676
0.0030809
0.000437396
0.000393917
0.00258719
0.00521214
0.00716504
0.00826076
0.00878866
0.00901868
0.00911009
0.00914311
0.00915382
0.00915682
0.00915742
0.00915739
0.00915727
0.00915719
0.00915719
0.00915727
0.00915739
0.00915741
0.00915681
0.00915381
0.00914311
0.0091101
0.0090187
0.0087887
0.00826082
0.0071651
0.0052122
0.00258722
0.000393917
0.000377803
0.00238703
0.00478376
0.00673455
0.0079854
0.00865601
0.00897146
0.00910356
0.00915335
0.00917032
0.00917552
0.00917689
0.00917715
0.00917715
0.00917712
0.00917712
0.00917715
0.00917715
0.00917689
0.00917552
0.00917032
0.00915335
0.00910357
0.0089715
0.00865606
0.00798548
0.00673464
0.00478383
0.00238707
0.000377803
0.000372408
0.00230984
0.00459652
0.00652179
0.00782732
0.00856788
0.00893207
0.00908988
0.00915103
0.00917245
0.00917926
0.0091812
0.00918167
0.00918175
0.00918175
0.00918176
0.00918176
0.00918168
0.0091812
0.00917926
0.00917245
0.00915104
0.00908989
0.00893211
0.00856794
0.00782741
0.00652189
0.00459659
0.00230987
0.000372409
0.000370447
0.00228327
0.00452285
0.00642693
0.00774449
0.00851527
0.00890274
0.00907388
0.00914132
0.00916532
0.0091731
0.00917538
0.00917598
0.0091761
0.00917612
0.00917612
0.00917611
0.00917598
0.00917538
0.00917309
0.00916532
0.00914133
0.0090739
0.00890278
0.00851534
0.00774459
0.00642703
0.00452292
0.00228329
0.000370448
0.000369488
0.00227602
0.00449414
0.00638512
0.00770677
0.00848601
0.00888216
0.00905891
0.0091292
0.00915442
0.00916268
0.00916514
0.00916579
0.00916594
0.00916596
0.00916595
0.00916593
0.00916578
0.00916512
0.00916266
0.00915441
0.0091292
0.00905893
0.0088822
0.00848608
0.00770686
0.00638521
0.00449421
0.00227605
0.000369488
0.000368815
0.0022754
0.00448735
0.00637114
0.00768939
0.00846942
0.00886772
0.00904618
0.00911747
0.00914314
0.00915159
0.00915413
0.0091548
0.00915495
0.00915496
0.00915496
0.00915494
0.00915477
0.00915408
0.00915155
0.00914312
0.00911746
0.00904622
0.00886776
0.00846949
0.00768946
0.0063712
0.0044874
0.00227544
0.000368816
0.000368239
0.00227649
0.00448611
0.00636575
0.00768071
0.00845926
0.00885732
0.00903591
0.00910733
0.0091331
0.00914159
0.00914414
0.00914482
0.00914491
0.00914501
0.00914496
0.00914501
0.0091448
0.00914412
0.00914156
0.0091331
0.00910733
0.00903591
0.00885734
0.00845939
0.0076808
0.0063658
0.00448614
0.00227652
0.00036824
0.000367682
0.00227783
0.00448631
0.00636332
0.00767564
0.00845249
0.00884965
0.00902779
0.00909904
0.00912474
0.00913324
0.00913575
0.00913647
0.00913659
0.00913665
0.00913664
0.00913658
0.00913643
0.00913572
0.00913328
0.00912474
0.00909908
0.00902779
0.0088496
0.00845252
0.00767573
0.00636336
0.00448632
0.00227784
0.000367683
0.000367134
0.00227887
0.00448653
0.00636169
0.007672
0.00844729
0.00884328
0.00902101
0.00909195
0.00911762
0.009126
0.0091285
0.00912923
0.00912948
0.00912947
0.00912954
0.00912947
0.0091293
0.00912855
0.00912604
0.00911754
0.00909198
0.009021
0.00884339
0.00844727
0.00767207
0.00636168
0.00448652
0.00227887
0.000367135
0.000366598
0.00227954
0.0044863
0.00636002
0.00766883
0.00844281
0.00883795
0.00901512
0.00908595
0.00911144
0.00911989
0.00912244
0.00912318
0.00912336
0.00912335
0.00912348
0.00912335
0.00912322
0.00912249
0.00911989
0.00911156
0.00908598
0.00901527
0.00883812
0.00844288
0.00766889
0.00636002
0.0044863
0.00227954
0.000366598
0.000366075
0.00228006
0.00448564
0.00635802
0.00766572
0.00843854
0.00883308
0.00900984
0.0090805
0.00910607
0.00911444
0.00911698
0.00911775
0.00911796
0.00911802
0.00911793
0.00911798
0.00911772
0.00911712
0.00911458
0.00910611
0.00908064
0.00900993
0.00883314
0.00843876
0.00766581
0.00635808
0.00448565
0.00228004
0.000366074
0.000365564
0.00228066
0.0044848
0.0063557
0.00766239
0.00843455
0.0088286
0.00900495
0.00907557
0.00910093
0.00910938
0.00911205
0.00911282
0.0091129
0.00911311
0.009113
0.00911295
0.00911272
0.00911201
0.00910947
0.00910103
0.00907554
0.00900508
0.00882858
0.00843468
0.00766244
0.00635572
0.0044848
0.00228063
0.000365562
0.000365069
0.0022814
0.00448419
0.00635333
0.00765891
0.0084304
0.00882377
0.00900001
0.00907023
0.00909574
0.00910411
0.00910664
0.00910732
0.00910764
0.00910762
0.00910768
0.00910761
0.00910742
0.00910669
0.00910407
0.00909569
0.00907031
0.00900001
0.00882387
0.00843044
0.00765894
0.00635335
0.00448419
0.00228138
0.000365067
0.00036459
0.00228228
0.00448394
0.00635125
0.00765529
0.00842586
0.00881866
0.00899473
0.00906484
0.00909019
0.00909853
0.00910114
0.0091018
0.00910203
0.00910204
0.00910208
0.00910207
0.00910193
0.00910105
0.00909848
0.00909014
0.00906484
0.00899465
0.00881873
0.00842585
0.00765534
0.00635135
0.00448398
0.00228229
0.000364588
0.0003641
0.00228309
0.00448373
0.00634935
0.00765178
0.00842121
0.00881354
0.00898915
0.00905925
0.00908452
0.00909289
0.00909546
0.00909618
0.00909636
0.00909641
0.00909644
0.00909637
0.00909617
0.00909535
0.00909267
0.00908439
0.00905904
0.00898902
0.00881346
0.00842111
0.00765182
0.00634949
0.00448382
0.00228313
0.000364102
0.000363605
0.00228372
0.00448336
0.00634747
0.00764846
0.00841683
0.00880853
0.00898383
0.00905378
0.00907901
0.00908736
0.0090899
0.00909062
0.00909083
0.00909085
0.00909084
0.0090908
0.00909058
0.00908982
0.00908718
0.00907891
0.00905364
0.00898375
0.00880849
0.00841683
0.00764855
0.00634762
0.00448348
0.00228377
0.000363608
0.00036312
0.00228419
0.00448278
0.0063455
0.00764532
0.00841283
0.00880395
0.00897895
0.00904874
0.00907394
0.00908224
0.00908477
0.00908549
0.00908567
0.00908572
0.00908572
0.00908566
0.00908546
0.00908472
0.0090822
0.00907387
0.00904873
0.00897894
0.00880395
0.00841287
0.00764543
0.00634564
0.00448289
0.00228425
0.000363122
0.000362627
0.00228456
0.00448196
0.00634339
0.00764222
0.00840904
0.0087998
0.00897454
0.00904425
0.00906937
0.00907765
0.00908018
0.00908092
0.00908109
0.00908112
0.0090811
0.00908105
0.00908086
0.00908015
0.00907762
0.00906933
0.0090442
0.00897453
0.00879981
0.00840911
0.00764232
0.0063435
0.00448205
0.00228459
0.000362628
0.000362142
0.00228476
0.00448091
0.00634108
0.00763909
0.00840539
0.00879571
0.00897024
0.0090398
0.00906491
0.00907318
0.00907568
0.00907638
0.0090765
0.00907661
0.00907661
0.00907652
0.00907638
0.00907569
0.00907325
0.00906495
0.0090399
0.00897025
0.00879566
0.0084054
0.00763918
0.00634115
0.00448096
0.00228478
0.000362142
0.000361666
0.0022849
0.00447977
0.00633866
0.00763593
0.00840187
0.00879205
0.0089665
0.00903607
0.00906113
0.0090694
0.00907192
0.00907261
0.00907277
0.00907277
0.00907269
0.00907268
0.00907254
0.00907192
0.00906943
0.00906122
0.00903612
0.00896655
0.00879216
0.00840188
0.00763599
0.00633869
0.00447978
0.0022849
0.000361666
0.000361205
0.00228508
0.00447868
0.0063363
0.0076327
0.00839831
0.00878839
0.00896277
0.00903226
0.00905733
0.00906554
0.00906806
0.00906872
0.00906891
0.0090689
0.00906889
0.00906881
0.00906869
0.00906815
0.00906564
0.00905738
0.00903239
0.00896288
0.00878854
0.00839844
0.00763274
0.00633628
0.00447867
0.00228507
0.000361204
0.000360753
0.00228533
0.00447769
0.00633405
0.00762953
0.00839477
0.00878454
0.00895882
0.00902819
0.00905308
0.00906139
0.00906391
0.00906466
0.00906494
0.00906499
0.00906506
0.00906518
0.00906485
0.00906412
0.00906159
0.00905333
0.00902832
0.00895912
0.00878488
0.00839496
0.00762954
0.00633405
0.0044777
0.00228532
0.000360752
0.000360309
0.00228561
0.00447679
0.00633185
0.00762632
0.00839076
0.00878039
0.00895439
0.00902367
0.00904864
0.00905689
0.00905943
0.00906016
0.00906035
0.00906044
0.00906048
0.00906036
0.00906029
0.00905957
0.00905705
0.00904877
0.00902375
0.00895444
0.00878037
0.00839083
0.00762633
0.00633188
0.00447683
0.00228562
0.000360309
0.000359876
0.00228588
0.00447592
0.00632974
0.0076232
0.00838681
0.0087758
0.00894966
0.00901892
0.00904386
0.0090521
0.0090546
0.00905533
0.00905554
0.00905557
0.00905555
0.00905549
0.00905532
0.00905462
0.00905209
0.00904384
0.00901892
0.00894966
0.00877584
0.00838688
0.00762321
0.00632978
0.00447598
0.0022859
0.000359877
0.000359441
0.00228606
0.00447499
0.00632764
0.00762023
0.00838318
0.00877173
0.00894531
0.00901451
0.00903942
0.00904764
0.00905015
0.00905088
0.00905109
0.00905112
0.00905106
0.00905099
0.00905081
0.0090501
0.00904758
0.00903936
0.00901448
0.00894529
0.00877171
0.00838317
0.00762022
0.0063277
0.00447506
0.00228609
0.000359441
0.000359002
0.00228611
0.00447395
0.00632551
0.00761731
0.00837975
0.00876796
0.00894139
0.00901044
0.00903531
0.00904352
0.00904603
0.00904675
0.00904696
0.00904701
0.00904703
0.00904697
0.00904672
0.00904599
0.00904347
0.00903527
0.00901041
0.00894139
0.008768
0.00837979
0.00761733
0.00632557
0.00447401
0.00228614
0.000359003
0.000358568
0.00228608
0.00447276
0.00632331
0.00761444
0.00837644
0.00876435
0.00893755
0.0090066
0.00903147
0.00903964
0.00904214
0.00904287
0.00904309
0.00904313
0.00904305
0.00904295
0.00904278
0.00904211
0.00903962
0.00903142
0.0090066
0.0089375
0.0087643
0.00837639
0.00761446
0.00632337
0.00447282
0.0022861
0.000358569
0.000358149
0.00228598
0.00447149
0.00632106
0.00761165
0.00837337
0.00876095
0.00893415
0.0090029
0.00902771
0.0090359
0.00903842
0.0090391
0.00903931
0.00903944
0.00903951
0.00903949
0.00903933
0.00903856
0.00903603
0.00902783
0.00900293
0.00893419
0.00876109
0.00837344
0.00761164
0.00632113
0.00447153
0.002286
0.00035815
0.000357744
0.00228589
0.00447025
0.00631885
0.00760895
0.00837034
0.00875793
0.00893097
0.0089997
0.00902443
0.00903259
0.00903512
0.0090358
0.00903605
0.00903608
0.00903619
0.00903618
0.00903598
0.00903526
0.00903277
0.00902455
0.00899976
0.00893098
0.00875795
0.00837044
0.00760893
0.0063189
0.00447025
0.0022859
0.000357745
0.00035735
0.00228585
0.00446912
0.00631675
0.00760624
0.00836749
0.00875486
0.00892774
0.00899649
0.0090212
0.00902932
0.00903182
0.00903251
0.0090327
0.00903277
0.0090328
0.00903275
0.00903251
0.00903178
0.0090293
0.00902124
0.00899646
0.00892776
0.00875489
0.00836742
0.0076063
0.00631673
0.00446909
0.00228584
0.000357349
0.000356965
0.00228585
0.00446806
0.00631473
0.00760347
0.00836443
0.00875176
0.00892452
0.00899333
0.00901805
0.00902617
0.0090286
0.0090294
0.00902955
0.00902947
0.00902945
0.00902938
0.0090291
0.00902836
0.00902592
0.00901782
0.00899331
0.00892445
0.00875163
0.00836448
0.00760371
0.0063147
0.00446802
0.00228582
0.000356964
0.000356589
0.00228586
0.00446706
0.00631278
0.00760078
0.00836102
0.00874791
0.00892052
0.00898927
0.00901395
0.00902216
0.00902465
0.00902532
0.00902554
0.00902561
0.00902556
0.00902552
0.00902529
0.00902454
0.00902204
0.00901392
0.00898927
0.00892061
0.00874792
0.00836106
0.00760088
0.00631278
0.00446703
0.00228584
0.000356588
0.000356223
0.00228585
0.00446607
0.00631086
0.00759817
0.00835788
0.00874448
0.00891697
0.00898562
0.00901029
0.00901845
0.00902093
0.00902161
0.00902184
0.00902189
0.00902188
0.00902185
0.00902162
0.00902092
0.00901841
0.00901029
0.00898565
0.00891707
0.00874452
0.00835792
0.00759822
0.00631088
0.00446607
0.00228584
0.000356222
0.000355866
0.0022858
0.00446506
0.00630898
0.00759568
0.00835498
0.00874134
0.00891378
0.0089823
0.00900694
0.00901504
0.00901751
0.00901823
0.00901843
0.00901848
0.00901848
0.00901842
0.00901823
0.00901754
0.00901508
0.00900697
0.00898232
0.00891378
0.00874138
0.00835501
0.00759572
0.00630901
0.00446507
0.0022858
0.000355865
0.000355509
0.0022857
0.00446401
0.00630709
0.00759322
0.00835219
0.0087384
0.0089107
0.00897919
0.00900379
0.00901187
0.00901436
0.00901509
0.00901527
0.0090154
0.00901525
0.00901522
0.00901508
0.00901435
0.00901194
0.00900382
0.00897916
0.00891071
0.00873829
0.00835222
0.00759327
0.00630713
0.00446403
0.00228571
0.00035551
0.000355157
0.00228554
0.0044629
0.00630519
0.00759081
0.00834945
0.00873538
0.00890763
0.00897601
0.00900058
0.00900865
0.00901111
0.00901188
0.00901207
0.00901206
0.00901207
0.00901199
0.00901186
0.00901118
0.00900873
0.00900057
0.00897596
0.00890749
0.00873536
0.0083495
0.00759086
0.00630524
0.00446293
0.00228555
0.000355158
0.000354819
0.00228534
0.00446175
0.00630329
0.00758839
0.00834689
0.00873278
0.00890484
0.00897325
0.00899774
0.00900586
0.00900837
0.00900909
0.00900917
0.00900915
0.00900916
0.00900915
0.00900907
0.00900828
0.0090058
0.00899779
0.0089732
0.00890477
0.00873278
0.00834696
0.00758847
0.00630333
0.0044618
0.00228536
0.00035482
0.000354494
0.00228514
0.00446065
0.00630145
0.00758622
0.00834443
0.00873017
0.00890219
0.00897054
0.008995
0.00900304
0.00900557
0.00900622
0.00900645
0.00900649
0.00900654
0.00900647
0.00900635
0.00900558
0.0090031
0.00899506
0.0089705
0.00890217
0.00873027
0.00834458
0.00758632
0.00630151
0.0044607
0.00228516
0.000354494
0.000354178
0.00228498
0.00445961
0.00629966
0.00758408
0.00834203
0.00872755
0.00889945
0.00896778
0.00899237
0.00900041
0.00900287
0.00900357
0.00900377
0.00900395
0.00900379
0.00900375
0.00900353
0.00900282
0.00900042
0.00899235
0.00896787
0.00889963
0.00872757
0.00834211
0.00758427
0.00629976
0.00445966
0.002285
0.000354178
0.000353872
0.00228483
0.00445862
0.00629802
0.00758202
0.00833972
0.00872484
0.00889662
0.00896494
0.00898952
0.00899764
0.0090001
0.00900077
0.00900101
0.00900102
0.00900116
0.009001
0.00900068
0.00900003
0.00899765
0.00898957
0.00896508
0.00889685
0.00872504
0.00833962
0.0075819
0.00629809
0.00445869
0.00228486
0.000353872
0.000353574
0.0022847
0.0044577
0.0062964
0.00757976
0.00833705
0.00872227
0.00889409
0.00896225
0.00898686
0.00899488
0.00899727
0.00899807
0.0089982
0.00899817
0.00899821
0.00899824
0.00899801
0.00899736
0.0089948
0.00898672
0.00896225
0.00889393
0.00872226
0.00833708
0.00757978
0.00629646
0.00445775
0.00228472
0.000353575
0.000353286
0.00228455
0.00445678
0.00629481
0.00757766
0.00833465
0.00871967
0.00889135
0.00895954
0.00898403
0.00899208
0.00899451
0.00899523
0.00899539
0.00899542
0.00899542
0.0089954
0.00899521
0.00899453
0.00899206
0.00898401
0.00895953
0.00889132
0.00871967
0.00833469
0.00757772
0.00629487
0.00445682
0.00228457
0.000353286
0.000353006
0.00228439
0.00445586
0.00629327
0.0075757
0.00833243
0.00871727
0.00888886
0.00895699
0.00898143
0.00898947
0.00899192
0.00899261
0.00899279
0.00899284
0.00899284
0.0089928
0.00899262
0.00899192
0.00898946
0.00898144
0.00895697
0.00888885
0.00871727
0.00833245
0.00757575
0.00629331
0.00445588
0.00228441
0.000353006
0.000352733
0.00228421
0.00445493
0.00629174
0.00757383
0.00833033
0.00871498
0.00888649
0.0089546
0.00897905
0.00898712
0.00898956
0.00899021
0.00899035
0.0089904
0.00899047
0.00899043
0.00899023
0.00898956
0.00898705
0.00897901
0.0089546
0.00888653
0.00871506
0.00833034
0.00757384
0.00629177
0.00445495
0.00228422
0.000352733
0.000352465
0.002284
0.00445399
0.00629024
0.00757194
0.00832823
0.00871281
0.00888418
0.00895222
0.00897657
0.00898454
0.008987
0.00898771
0.00898793
0.00898799
0.00898795
0.0089879
0.0089877
0.00898701
0.00898455
0.00897659
0.00895212
0.00888413
0.0087127
0.00832816
0.00757193
0.00629025
0.004454
0.00228401
0.000352465
0.000352207
0.00228378
0.00445304
0.00628867
0.00757013
0.00832618
0.00871058
0.00888193
0.00894996
0.00897438
0.00898239
0.00898478
0.00898549
0.00898569
0.00898573
0.00898575
0.00898571
0.00898555
0.00898484
0.00898242
0.00897434
0.00894997
0.00888192
0.00871063
0.00832621
0.00757014
0.00628877
0.00445306
0.00228378
0.000352207
0.00035196
0.00228355
0.00445211
0.0062873
0.00756841
0.00832428
0.00870859
0.00887983
0.00894789
0.00897224
0.00898031
0.00898269
0.00898339
0.00898357
0.00898366
0.00898365
0.00898363
0.00898336
0.00898277
0.00898029
0.00897233
0.00894788
0.00887989
0.00870859
0.0083244
0.00756845
0.00628735
0.00445214
0.00228356
0.00035196
0.000351721
0.00228334
0.00445124
0.00628595
0.00756678
0.00832244
0.00870659
0.00887787
0.00894585
0.00897027
0.00897829
0.00898077
0.00898144
0.00898157
0.00898162
0.00898165
0.00898158
0.00898144
0.00898069
0.00897826
0.00897022
0.00894591
0.00887791
0.00870673
0.00832253
0.00756685
0.00628606
0.00445129
0.00228335
0.000351722
0.000351491
0.00228313
0.00445044
0.00628481
0.00756518
0.00832064
0.00870474
0.00887586
0.00894378
0.00896816
0.00897613
0.00897861
0.00897933
0.00897956
0.00897957
0.00897955
0.00897944
0.00897929
0.00897854
0.00897616
0.00896819
0.0089438
0.00887586
0.0087047
0.0083206
0.0075652
0.00628469
0.00445047
0.00228315
0.000351492
0.000351269
0.00228295
0.00444968
0.00628343
0.00756352
0.00831882
0.00870277
0.00887387
0.00894176
0.00896618
0.00897416
0.0089766
0.00897728
0.00897752
0.00897755
0.00897755
0.00897749
0.00897733
0.00897663
0.00897423
0.00896621
0.00894178
0.00887389
0.00870279
0.00831883
0.00756358
0.00628342
0.00444971
0.00228297
0.00035127
0.000351055
0.00228277
0.00444894
0.00628222
0.00756198
0.00831706
0.00870091
0.00887194
0.00893983
0.00896418
0.00897218
0.0089746
0.00897531
0.00897548
0.00897554
0.00897552
0.00897549
0.00897529
0.00897461
0.00897218
0.00896418
0.0089398
0.00887196
0.00870091
0.00831711
0.00756205
0.00628225
0.00444898
0.00228279
0.000351056
0.000350849
0.00228259
0.00444821
0.00628104
0.0075605
0.00831539
0.00869914
0.0088701
0.00893796
0.0089623
0.00897029
0.00897272
0.00897342
0.00897359
0.00897365
0.00897364
0.00897361
0.00897341
0.00897273
0.0089703
0.0089623
0.00893795
0.00887012
0.00869914
0.00831544
0.00756057
0.00628109
0.00444824
0.0022826
0.000350849
0.00035065
0.0022824
0.00444748
0.00627989
0.00755908
0.0083138
0.00869742
0.00886836
0.0089362
0.00896053
0.00896851
0.00897094
0.00897163
0.00897181
0.00897186
0.00897186
0.00897181
0.00897162
0.00897093
0.00896851
0.00896051
0.0089362
0.00886838
0.00869747
0.00831384
0.00755915
0.00627994
0.00444751
0.00228241
0.00035065
0.000350458
0.0022822
0.00444676
0.00627876
0.00755771
0.00831226
0.00869582
0.00886671
0.00893452
0.00895883
0.00896681
0.00896925
0.00896992
0.00897011
0.00897016
0.00897018
0.00897011
0.00896996
0.00896924
0.00896682
0.00895882
0.00893453
0.00886673
0.0086959
0.00831235
0.00755778
0.00627882
0.00444679
0.00228222
0.000350458
0.000350272
0.002282
0.00444604
0.00627765
0.00755635
0.00831076
0.00869417
0.00886502
0.00893279
0.0089571
0.00896507
0.0089675
0.00896819
0.00896836
0.00896842
0.00896843
0.0089684
0.0089682
0.00896754
0.00896508
0.0089571
0.00893281
0.00886502
0.00869421
0.00831075
0.00755641
0.00627773
0.00444608
0.00228201
0.000350272
0.000350093
0.00228179
0.00444533
0.00627658
0.00755513
0.00830933
0.00869272
0.00886349
0.00893128
0.00895553
0.0089635
0.00896596
0.00896661
0.00896683
0.00896686
0.00896688
0.0089668
0.00896666
0.00896594
0.00896353
0.00895557
0.00893128
0.0088635
0.00869274
0.00830938
0.00755514
0.00627666
0.00444538
0.0022818
0.000350093
0.000349921
0.00228159
0.00444467
0.00627562
0.00755394
0.00830808
0.00869134
0.00886206
0.0089298
0.0089541
0.00896206
0.00896448
0.00896516
0.00896537
0.00896539
0.00896538
0.00896534
0.00896516
0.00896447
0.00896204
0.00895409
0.0089298
0.00886206
0.00869135
0.00830806
0.00755398
0.00627564
0.0044447
0.0022816
0.000349922
0.000349757
0.00228139
0.00444405
0.00627473
0.00755279
0.00830676
0.00868998
0.00886067
0.00892839
0.00895266
0.00896066
0.00896305
0.00896376
0.00896392
0.00896398
0.00896395
0.00896393
0.00896373
0.00896305
0.00896059
0.00895268
0.00892837
0.00886068
0.00868999
0.00830679
0.0075528
0.00627474
0.00444407
0.00228141
0.000349757
0.000349599
0.00228121
0.00444345
0.00627375
0.00755161
0.00830548
0.00868861
0.00885925
0.0089269
0.00895119
0.00895918
0.0089616
0.0089623
0.00896245
0.00896252
0.0089625
0.00896248
0.00896225
0.00896158
0.00895915
0.0089512
0.00892693
0.00885924
0.00868859
0.00830549
0.00755169
0.00627385
0.00444349
0.00228122
0.000349599
0.000349448
0.00228103
0.00444288
0.00627285
0.00755052
0.00830426
0.0086873
0.00885793
0.00892561
0.00894988
0.00895784
0.00896028
0.00896099
0.00896116
0.00896121
0.00896122
0.00896112
0.00896093
0.00896023
0.00895791
0.00894987
0.00892564
0.00885797
0.00868733
0.00830431
0.00755056
0.00627292
0.00444291
0.00228105
0.000349448
0.000349302
0.00228086
0.00444233
0.00627202
0.00754947
0.00830307
0.00868605
0.00885663
0.0089243
0.00894856
0.00895651
0.00895893
0.00895962
0.00895985
0.00895985
0.00895987
0.00895984
0.00895968
0.00895899
0.00895653
0.00894858
0.00892433
0.00885666
0.00868607
0.0083031
0.00754951
0.00627207
0.00444236
0.00228087
0.000349303
0.000349163
0.00228069
0.00444179
0.00627121
0.00754847
0.00830195
0.00868487
0.00885541
0.00892306
0.00894731
0.00895526
0.00895768
0.00895836
0.00895855
0.00895859
0.00895859
0.00895855
0.00895837
0.00895769
0.00895526
0.00894731
0.00892306
0.00885542
0.00868488
0.00830198
0.00754852
0.00627126
0.00444183
0.0022807
0.000349163
0.00034903
0.00228052
0.00444127
0.00627043
0.00754751
0.00830088
0.00868373
0.00885424
0.00892187
0.00894611
0.00895407
0.00895648
0.00895717
0.00895735
0.0089574
0.0089574
0.00895735
0.00895717
0.00895648
0.00895407
0.00894611
0.00892188
0.00885425
0.00868375
0.00830091
0.00754756
0.00627047
0.00444131
0.00228054
0.00034903
0.000348902
0.00228036
0.00444077
0.00626967
0.00754659
0.00829985
0.00868264
0.00885312
0.00892073
0.00894497
0.00895292
0.00895533
0.00895602
0.0089562
0.00895625
0.00895625
0.0089562
0.00895602
0.00895533
0.00895292
0.00894497
0.00892074
0.00885313
0.00868266
0.00829989
0.00754663
0.00626972
0.0044408
0.00228037
0.000348902
0.000348779
0.00228019
0.00444029
0.00626895
0.0075457
0.00829887
0.00868159
0.00885204
0.00891964
0.00894387
0.00895182
0.00895423
0.00895492
0.0089551
0.00895514
0.00895514
0.0089551
0.00895492
0.00895423
0.00895182
0.00894387
0.00891965
0.00885205
0.00868161
0.0082989
0.00754575
0.00626899
0.00444032
0.00228021
0.00034878
0.000348662
0.00228003
0.00443982
0.00626825
0.00754485
0.00829792
0.00868059
0.00885101
0.00891859
0.00894282
0.00895076
0.00895318
0.00895386
0.00895404
0.00895409
0.00895409
0.00895404
0.00895386
0.00895318
0.00895076
0.00894282
0.0089186
0.00885102
0.00868061
0.00829795
0.0075449
0.00626829
0.00443985
0.00228005
0.000348663
0.000348551
0.00227988
0.00443937
0.00626758
0.00754404
0.00829701
0.00867963
0.00885002
0.00891759
0.00894181
0.00894975
0.00895216
0.00895285
0.00895303
0.00895307
0.00895307
0.00895303
0.00895285
0.00895216
0.00894975
0.00894181
0.00891759
0.00885003
0.00867965
0.00829704
0.00754408
0.00626762
0.0044394
0.00227989
0.000348551
0.000348445
0.00227972
0.00443893
0.00626693
0.00754325
0.00829614
0.00867871
0.00884907
0.00891663
0.00894084
0.00894878
0.00895119
0.00895188
0.00895206
0.0089521
0.0089521
0.00895206
0.00895188
0.00895119
0.00894878
0.00894084
0.00891663
0.00884908
0.00867872
0.00829617
0.00754329
0.00626698
0.00443896
0.00227973
0.000348445
0.000348344
0.00227956
0.0044385
0.00626631
0.0075425
0.0082953
0.00867782
0.00884816
0.00891571
0.00893991
0.00894785
0.00895026
0.00895095
0.00895113
0.00895117
0.00895117
0.00895113
0.00895095
0.00895026
0.00894785
0.00893991
0.00891571
0.00884817
0.00867784
0.00829533
0.00754254
0.00626635
0.00443854
0.00227958
0.000348344
0.000348248
0.00227941
0.00443809
0.00626571
0.00754177
0.0082945
0.00867697
0.00884728
0.00891482
0.00893902
0.00894696
0.00894937
0.00895006
0.00895024
0.00895028
0.00895028
0.00895024
0.00895005
0.00894937
0.00894696
0.00893902
0.00891483
0.00884729
0.00867699
0.00829453
0.00754182
0.00626576
0.00443813
0.00227942
0.000348248
0.000348156
0.00227925
0.0044377
0.00626513
0.00754108
0.00829373
0.00867616
0.00884645
0.00891397
0.00893817
0.00894611
0.00894852
0.0089492
0.00894938
0.00894943
0.00894943
0.00894938
0.0089492
0.00894852
0.00894611
0.00893817
0.00891398
0.00884646
0.00867618
0.00829376
0.00754112
0.00626518
0.00443773
0.00227927
0.000348157
0.00034807
0.0022791
0.00443731
0.00626458
0.00754041
0.00829299
0.00867538
0.00884564
0.00891316
0.00893735
0.00894529
0.0089477
0.00894838
0.00894856
0.0089486
0.0089486
0.00894856
0.00894838
0.0089477
0.00894529
0.00893735
0.00891316
0.00884565
0.00867539
0.00829302
0.00754045
0.00626463
0.00443735
0.00227912
0.00034807
0.000347988
0.00227895
0.00443694
0.00626404
0.00753977
0.00829228
0.00867463
0.00884487
0.00891238
0.00893657
0.0089445
0.00894691
0.00894759
0.00894777
0.00894782
0.00894782
0.00894777
0.00894759
0.00894691
0.0089445
0.00893657
0.00891239
0.00884488
0.00867465
0.00829231
0.00753981
0.00626409
0.00443697
0.00227896
0.000347988
0.00034791
0.0022788
0.00443657
0.00626353
0.00753915
0.0082916
0.00867391
0.00884414
0.00891164
0.00893582
0.00894375
0.00894616
0.00894684
0.00894702
0.00894707
0.00894707
0.00894702
0.00894684
0.00894616
0.00894375
0.00893582
0.00891164
0.00884415
0.00867393
0.00829163
0.00753919
0.00626357
0.00443661
0.00227881
0.00034791
0.000347835
0.00227865
0.00443622
0.00626303
0.00753856
0.00829094
0.00867322
0.00884343
0.00891092
0.00893511
0.00894304
0.00894544
0.00894612
0.00894631
0.00894635
0.00894635
0.00894631
0.00894612
0.00894544
0.00894304
0.00893511
0.00891093
0.00884344
0.00867324
0.00829098
0.0075386
0.00626307
0.00443625
0.00227866
0.000347836
0.000347765
0.00227849
0.00443587
0.00626254
0.00753798
0.00829031
0.00867256
0.00884276
0.00891024
0.00893442
0.00894235
0.00894475
0.00894544
0.00894562
0.00894566
0.00894566
0.00894562
0.00894544
0.00894475
0.00894235
0.00893442
0.00891025
0.00884277
0.00867258
0.00829035
0.00753802
0.00626259
0.0044359
0.00227851
0.000347765
0.000347699
0.00227834
0.00443552
0.00626206
0.00753742
0.00828971
0.00867193
0.00884211
0.00890959
0.00893376
0.00894169
0.00894409
0.00894478
0.00894496
0.008945
0.008945
0.00894496
0.00894478
0.00894409
0.00894169
0.00893376
0.00890959
0.00884212
0.00867195
0.00828974
0.00753747
0.00626211
0.00443555
0.00227835
0.000347699
0.000347637
0.00227817
0.00443516
0.00626159
0.00753687
0.00828912
0.00867132
0.00884149
0.00890896
0.00893313
0.00894106
0.00894346
0.00894414
0.00894432
0.00894437
0.00894437
0.00894432
0.00894414
0.00894346
0.00894106
0.00893313
0.00890896
0.0088415
0.00867133
0.00828915
0.00753692
0.00626163
0.0044352
0.00227818
0.000347637
0.000347578
0.00227799
0.0044348
0.00626111
0.00753633
0.00828854
0.00867073
0.00884089
0.00890835
0.00893252
0.00894045
0.00894285
0.00894353
0.00894371
0.00894376
0.00894376
0.00894371
0.00894353
0.00894285
0.00894045
0.00893252
0.00890836
0.0088409
0.00867074
0.00828858
0.00753638
0.00626116
0.00443484
0.002278
0.000347578
0.000347522
0.0022778
0.00443443
0.00626063
0.0075358
0.00828799
0.00867015
0.00884031
0.00890777
0.00893194
0.00893986
0.00894227
0.00894295
0.00894313
0.00894317
0.00894317
0.00894313
0.00894295
0.00894227
0.00893986
0.00893194
0.00890777
0.00884032
0.00867017
0.00828802
0.00753585
0.00626068
0.00443447
0.00227782
0.000347523
0.00034747
0.0022776
0.00443405
0.00626015
0.00753527
0.00828744
0.0086696
0.00883975
0.00890721
0.00893138
0.0089393
0.0089417
0.00894238
0.00894257
0.00894261
0.00894261
0.00894257
0.00894238
0.0089417
0.0089393
0.00893138
0.00890721
0.00883976
0.00866961
0.00828747
0.00753532
0.0062602
0.00443408
0.00227762
0.00034747
0.000347419
0.00227739
0.00443365
0.00625966
0.00753475
0.0082869
0.00866906
0.00883921
0.00890667
0.00893084
0.00893876
0.00894116
0.00894184
0.00894202
0.00894207
0.00894207
0.00894202
0.00894184
0.00894116
0.00893876
0.00893084
0.00890667
0.00883922
0.00866907
0.00828693
0.00753479
0.0062597
0.00443368
0.0022774
0.00034742
0.000347371
0.00227714
0.00443321
0.00625914
0.00753421
0.00828637
0.00866854
0.00883869
0.00890616
0.00893033
0.00893825
0.00894065
0.00894133
0.00894151
0.00894155
0.00894155
0.00894151
0.00894133
0.00894065
0.00893825
0.00893033
0.00890616
0.0088387
0.00866855
0.0082864
0.00753426
0.00625919
0.00443325
0.00227716
0.000347372
0.000347325
0.00227684
0.00443274
0.0062586
0.00753367
0.00828585
0.00866804
0.00883821
0.00890568
0.00892985
0.00893777
0.00894018
0.00894086
0.00894104
0.00894108
0.00894108
0.00894104
0.00894086
0.00894018
0.00893777
0.00892985
0.00890568
0.00883822
0.00866806
0.00828589
0.00753372
0.00625865
0.00443277
0.00227686
0.000347326
0.000347281
0.00227648
0.00443221
0.00625803
0.00753313
0.00828536
0.00866759
0.00883778
0.00890526
0.00892944
0.00893736
0.00893976
0.00894044
0.00894062
0.00894066
0.00894066
0.00894062
0.00894044
0.00893976
0.00893736
0.00892944
0.00890527
0.00883779
0.00866761
0.00828539
0.00753317
0.00625808
0.00443224
0.0022765
0.000347282
0.000347239
0.00227605
0.00443161
0.00625742
0.0075326
0.00828492
0.00866722
0.00883745
0.00890495
0.00892913
0.00893706
0.00893946
0.00894014
0.00894032
0.00894036
0.00894036
0.00894032
0.00894014
0.00893946
0.00893706
0.00892913
0.00890495
0.00883746
0.00866724
0.00828496
0.00753264
0.00625746
0.00443164
0.00227606
0.00034724
0.000347198
0.00227551
0.00443092
0.00625678
0.00753212
0.00828462
0.00866703
0.00883733
0.00890485
0.00892905
0.00893698
0.00893938
0.00894006
0.00894024