/*--------------------------------*- C++ -*----------------------------------*\
| =========                 |                                                 |
| \\      /  F ield         | OpenFOAM: The Open Source CFD Toolbox           |
|  \\    /   O peration     | Version:  2312                                  |
|   \\  /    A nd           | Website:  www.openfoam.com                      |
|    \\/     M anipulation  |                                                 |
\*---------------------------------------------------------------------------*/
FoamFile
{
    version     2.0;
    format      ascii;
    arch        "LSB;label=32;scalar=64";
    class       surfaceScalarField;
    location    "0.01";
    object      phi.air;
}
// * * * * * * * * * * * * * * * * * * * * * * * * * * * * * * * * * * * * * //

dimensions      [0 3 -1 0 0 0 0];

oriented        oriented;

internalField   nonuniform List<scalar> 
11770
(
5.97018e-06
8.83338e-05
7.09307e-06
9.03102e-05
6.82041e-06
9.01564e-05
6.02573e-06
8.98212e-05
5.06111e-06
8.96173e-05
4.14992e-06
8.94032e-05
3.3615e-06
8.92087e-05
2.70008e-06
8.90478e-05
2.14702e-06
8.89209e-05
1.679e-06
8.88242e-05
1.27573e-06
8.87519e-05
9.19262e-07
8.86998e-05
5.95499e-07
8.86637e-05
2.92206e-07
8.8641e-05
-1.24365e-09
8.86302e-05
-2.94706e-07
8.86301e-05
-5.9789e-07
8.86409e-05
-9.21479e-07
8.86634e-05
-1.27748e-06
8.86994e-05
-1.68004e-06
8.87512e-05
-2.14722e-06
8.88233e-05
-2.69946e-06
8.89199e-05
-3.36022e-06
8.90469e-05
-4.1483e-06
8.92081e-05
-5.05946e-06
8.94028e-05
-6.02427e-06
8.96171e-05
-6.81931e-06
8.98211e-05
-7.09239e-06
9.01565e-05
-5.96972e-06
9.03103e-05
8.83341e-05
1.84113e-06
8.66697e-05
4.30152e-06
9.00405e-05
5.08897e-06
9.11517e-05
4.78064e-06
9.12127e-05
4.1387e-06
9.09181e-05
3.44716e-06
9.05328e-05
2.81828e-06
9.01808e-05
2.27856e-06
8.98966e-05
1.82129e-06
8.9678e-05
1.43039e-06
8.95144e-05
1.09082e-06
8.93927e-05
7.88148e-07
8.93056e-05
5.11577e-07
8.92449e-05
2.5131e-07
8.9207e-05
-1.13555e-09
8.91887e-05
-2.53746e-07
8.91888e-05
-5.13923e-07
8.92068e-05
-7.90474e-07
8.92447e-05
-1.09269e-06
8.93047e-05
-1.43148e-06
8.93913e-05
-1.8215e-06
8.95127e-05
-2.27792e-06
8.96763e-05
-2.81687e-06
8.9895e-05
-3.44533e-06
9.01795e-05
-4.13691e-06
9.05323e-05
-4.77914e-06
9.09179e-05
-5.08785e-06
9.12128e-05
-4.30073e-06
9.11518e-05
-1.84075e-06
9.00407e-05
8.66702e-05
3.42082e-07
8.49363e-05
1.83247e-06
8.86565e-05
2.7752e-06
9.06794e-05
3.03274e-06
9.13273e-05
2.87789e-06
9.12408e-05
2.53307e-06
9.08737e-05
2.13943e-06
9.04658e-05
1.76532e-06
9.01098e-05
1.42952e-06
8.9829e-05
1.13322e-06
8.96159e-05
8.69862e-07
8.94569e-05
6.31462e-07
8.93431e-05
4.11342e-07
8.92634e-05
2.02374e-07
8.92138e-05
-9.27026e-10
8.91898e-05
-2.04677e-07
8.91902e-05
-4.13451e-07
8.92135e-05
-6.34064e-07
8.92636e-05
-8.71912e-07
8.93419e-05
-1.13424e-06
8.94547e-05
-1.42986e-06
8.96136e-05
-1.76483e-06
8.98264e-05
-2.13799e-06
9.01073e-05
-2.53081e-06
9.04639e-05
-2.87606e-06
9.08733e-05
-3.03114e-06
9.12407e-05
-2.77403e-06
9.13276e-05
-1.8317e-06
9.06798e-05
-3.41504e-07
8.86567e-05
8.4937e-05
2.23651e-07
8.29585e-05
7.78282e-07
8.68245e-05
1.37134e-06
8.9002e-05
1.75293e-06
8.99074e-05
1.86555e-06
9.0034e-05
1.78168e-06
8.97843e-05
1.59028e-06
8.94205e-05
1.36292e-06
8.9063e-05
1.13153e-06
8.87657e-05
9.12782e-07
8.85307e-05
7.08911e-07
8.8352e-05
5.1881e-07
8.82223e-05
3.40414e-07
8.81299e-05
1.67745e-07
8.80733e-05
-8.29087e-10
8.80451e-05
-1.69903e-07
8.80461e-05
-3.41877e-07
8.80726e-05
-5.21831e-07
8.81312e-05
-7.11584e-07
8.82206e-05
-9.14114e-07
8.83486e-05
-1.13226e-06
8.85278e-05
-1.36238e-06
8.87622e-05
-1.58886e-06
8.90597e-05
-1.77924e-06
8.94179e-05
-1.86379e-06
8.97846e-05
-1.7505e-06
9.00336e-05
-1.37006e-06
8.99086e-05
-7.77651e-07
8.90029e-05
-2.22806e-07
8.68244e-05
8.29595e-05
4.16203e-08
8.11943e-05
2.66532e-07
8.50958e-05
6.16766e-07
8.72293e-05
9.34458e-07
8.81981e-05
1.12018e-06
8.8442e-05
1.16647e-06
8.82987e-05
1.11235e-06
8.80079e-05
9.99497e-07
8.7689e-05
8.58297e-07
8.74095e-05
7.0873e-07
8.71776e-05
5.60243e-07
8.69963e-05
4.14668e-07
8.68627e-05
2.74788e-07
8.67645e-05
1.36172e-07
8.67059e-05
-1.87615e-10
8.66753e-05
-1.38271e-07
8.66776e-05
-2.75706e-07
8.6704e-05
-4.17557e-07
8.67669e-05
-5.63627e-07
8.68604e-05
-7.11294e-07
8.69914e-05
-8.59512e-07
8.71736e-05
-9.98753e-07
8.74044e-05
-1.11107e-06
8.76851e-05
-1.16484e-06
8.8005e-05
-1.11797e-06
8.82998e-05
-9.30549e-07
8.84412e-05
-6.15234e-07
8.82014e-05
-2.6607e-07
8.72314e-05
-4.08486e-08
8.50956e-05
8.11957e-05
-1.45842e-07
7.97198e-05
-7.34194e-08
8.35404e-05
1.40007e-07
8.56018e-05
3.8433e-07
8.6573e-05
5.72532e-07
8.68764e-05
6.74952e-07
8.68095e-05
7.01367e-07
8.65851e-05
6.69801e-07
8.63154e-05
5.99889e-07
8.607e-05
5.11144e-07
8.58549e-05
4.12553e-07
8.5682e-05
3.09921e-07
8.55533e-05
2.06509e-07
8.5456e-05
1.03814e-07
8.53988e-05
1.33949e-09
8.53677e-05
-1.06354e-07
8.5373e-05
-2.09239e-07
8.53956e-05
-3.121e-07
8.5459e-05
-4.15465e-07
8.55514e-05
-5.14555e-07
8.56774e-05
-6.01002e-07
8.58493e-05
-6.6912e-07
8.60627e-05
-6.99935e-07
8.63108e-05
-6.73143e-07
8.65821e-05
-5.6906e-07
8.68102e-05
-3.80522e-07
8.68746e-05
-1.37938e-07
8.65779e-05
7.40702e-08
8.56053e-05
1.46016e-07
8.35405e-05
7.97214e-05
-2.76596e-07
7.84465e-05
-3.2134e-07
8.2123e-05
-1.99917e-07
8.40934e-05
-1.82542e-08
8.50466e-05
1.57264e-07
8.53798e-05
2.86877e-07
8.53649e-05
3.57133e-07
8.51994e-05
3.84357e-07
8.49735e-05
3.64883e-07
8.47729e-05
3.27656e-07
8.45773e-05
2.73222e-07
8.44194e-05
2.0924e-07
8.43008e-05
1.40869e-07
8.42087e-05
7.0563e-08
8.41542e-05
-2.60981e-10
8.41256e-05
-7.37963e-08
8.41352e-05
-1.43712e-07
8.41524e-05
-2.11024e-07
8.42126e-05
-2.71971e-07
8.42987e-05
-3.31211e-07
8.44191e-05
-3.67505e-07
8.45701e-05
-3.82229e-07
8.47607e-05
-3.55437e-07
8.49685e-05
-2.83704e-07
8.51943e-05
-1.54842e-07
8.5366e-05
2.06548e-08
8.53774e-05
2.03576e-07
8.50513e-05
3.22876e-07
8.40984e-05
2.76482e-07
8.21239e-05
7.8448e-05
-3.60169e-07
7.72969e-05
-5.05936e-07
8.08143e-05
-4.62121e-07
8.26736e-05
-3.30784e-07
8.36014e-05
-1.73736e-07
8.39533e-05
-2.21011e-08
8.39842e-05
7.26937e-08
8.38686e-05
1.47776e-07
8.36825e-05
1.60269e-07
8.35003e-05
1.60181e-07
8.33327e-05
1.47809e-07
8.31959e-05
1.18942e-07
8.30925e-05
7.85062e-08
8.30145e-05
4.3336e-08
8.29701e-05
-2.06322e-09
8.29447e-05
-4.34926e-08
8.29468e-05
-8.35476e-08
8.29583e-05
-1.18397e-07
8.30141e-05
-1.39913e-07
8.30862e-05
-1.66009e-07
8.31972e-05
-1.65837e-07
8.33271e-05
-1.39311e-07
8.34918e-05
-7.33325e-08
8.36617e-05
2.82198e-08
8.38459e-05
1.6961e-07
8.3969e-05
3.30709e-07
8.39428e-05
4.66445e-07
8.36036e-05
5.08793e-07
8.26803e-05
3.60608e-07
8.08168e-05
7.72987e-05
-4.1585e-07
7.62178e-05
-6.42729e-07
7.95825e-05
-6.71971e-07
8.132e-05
-5.67766e-07
8.22188e-05
-4.38802e-07
8.25618e-05
-2.6164e-07
8.26505e-05
-1.64377e-07
8.25446e-05
-6.15012e-08
8.2403e-05
-1.04516e-08
8.22339e-05
1.73965e-08
8.20885e-05
3.87408e-08
8.19811e-05
3.95786e-08
8.1899e-05
2.05646e-08
8.18453e-05
2.98808e-08
8.18357e-05
-1.14923e-08
8.17846e-05
-1.8064e-08
8.18072e-05
-3.11592e-08
8.18129e-05
-3.07384e-08
8.18617e-05
-2.9693e-08
8.19072e-05
-1.92577e-08
8.20089e-05
3.77478e-09
8.2107e-05
5.8216e-08
8.22547e-05
1.57374e-07
8.24089e-05
2.85465e-07
8.25478e-05
4.22695e-07
8.26107e-05
5.76566e-07
8.25611e-05
6.71749e-07
8.22054e-05
6.45487e-07
8.13252e-05
4.16943e-07
7.95863e-05
7.62206e-05
-4.53248e-07
7.51736e-05
-7.34906e-07
7.83909e-05
-8.1676e-07
7.99959e-05
-7.52139e-07
8.08169e-05
-6.16248e-07
8.11629e-05
-4.70372e-07
8.12609e-05
-3.49612e-07
8.11765e-05
-2.50277e-07
8.10821e-05
-1.66362e-07
8.0955e-05
-9.06684e-08
8.08635e-05
-5.23359e-08
8.07951e-05
-1.67519e-08
8.07311e-05
1.60806e-11
8.06683e-05
-3.54692e-09
8.0639e-05
-4.72394e-09
8.05971e-05
-4.18356e-09
8.06282e-05
1.89375e-08
8.06562e-05
3.30125e-08
8.06867e-05
7.29043e-08
8.07267e-05
9.17893e-08
8.07738e-05
1.49398e-07
8.0865e-05
2.28835e-07
8.09972e-05
3.35254e-07
8.11364e-05
4.66283e-07
8.12495e-05
6.27899e-07
8.1291e-05
7.53595e-07
8.11887e-05
8.22966e-07
8.08299e-05
7.3804e-07
8.00057e-05
4.54625e-07
7.83972e-05
7.51779e-05
-4.76187e-07
7.41438e-05
-7.85682e-07
7.72144e-05
-9.18891e-07
7.86915e-05
-8.77917e-07
7.94193e-05
-7.39081e-07
7.97571e-05
-6.5596e-07
7.98287e-05
-4.75202e-07
7.98361e-05
-3.9555e-07
7.97422e-05
-2.65968e-07
7.96958e-05
-1.75078e-07
7.96288e-05
-1.24115e-07
7.95721e-05
-7.39709e-08
7.95161e-05
-1.70297e-08
7.9442e-05
-4.41139e-08
7.93658e-05
1.5382e-08
7.93683e-05
2.53671e-08
7.93776e-05
5.6268e-08
7.9411e-05
7.54449e-08
7.94371e-05
1.30941e-07
7.94968e-05
1.90374e-07
7.95467e-05
2.78418e-07
7.96118e-05
3.84275e-07
7.97113e-05
4.80457e-07
7.9789e-05
5.92872e-07
7.98717e-05
7.57025e-07
7.99172e-05
8.71257e-07
7.97999e-05
9.18608e-07
7.94505e-05
7.85978e-07
7.87031e-05
4.76353e-07
7.72216e-05
7.41484e-05
-4.90106e-07
7.31115e-05
-7.9495e-07
7.60281e-05
-9.75355e-07
7.74002e-05
-9.6086e-07
7.8028e-05
-8.53922e-07
7.83549e-05
-7.44544e-07
7.84367e-05
-5.94548e-07
7.84794e-05
-4.53962e-07
7.84275e-05
-3.39144e-07
7.83889e-05
-2.45092e-07
7.83354e-05
-1.81166e-07
7.8266e-05
-1.33305e-07
7.82098e-05
-8.11134e-08
7.81541e-05
-5.21034e-08
7.80838e-05
3.51549e-08
7.81166e-05
6.04937e-08
7.80529e-05
8.505e-08
7.80613e-05
1.24026e-07
7.80978e-05
1.7515e-07
7.81647e-05
2.74422e-07
7.82458e-05
3.73996e-07
7.82919e-05
4.883e-07
7.83376e-05
5.90029e-07
7.83664e-05
7.00904e-07
7.84088e-05
8.33465e-07
7.84462e-05
9.36584e-07
7.83559e-05
9.60811e-07
7.80421e-05
7.90031e-07
7.7405e-05
4.87868e-07
7.60331e-05
7.31141e-05
-4.97823e-07
7.20661e-05
-7.82506e-07
7.48143e-05
-9.74975e-07
7.61053e-05
-9.99844e-07
7.66248e-05
-9.43768e-07
7.69117e-05
-7.75043e-07
7.70591e-05
-6.72659e-07
7.70636e-05
-4.94197e-07
7.7063e-05
-3.90137e-07
7.6998e-05
-3.09274e-07
7.69311e-05
-2.29117e-07
7.68645e-05
-1.86526e-07
7.68026e-05
-1.48096e-07
7.67872e-05
-3.18524e-08
7.68003e-05
-1.24731e-08
7.67798e-05
7.55932e-08
7.67788e-05
1.14008e-07
7.67561e-05
1.92241e-07
7.67911e-05
2.36089e-07
7.68142e-05
3.35252e-07
7.68848e-05
4.22573e-07
7.69322e-05
5.29419e-07
7.69735e-05
6.54848e-07
7.70043e-05
8.10754e-07
7.70264e-05
8.96953e-07
7.69832e-05
9.81126e-07
7.68904e-05
9.52828e-07
7.66177e-05
7.71812e-07
7.60978e-05
4.93428e-07
7.48135e-05
7.20647e-05
-5.02162e-07
7.10023e-05
-7.74638e-07
7.35742e-05
-9.2165e-07
7.47771e-05
-1.00951e-06
7.52256e-05
-9.43511e-07
7.54385e-05
-8.22946e-07
7.55833e-05
-6.80104e-07
7.56024e-05
-5.6009e-07
7.55701e-05
-4.60472e-07
7.55235e-05
-3.57538e-07
7.54956e-05
-2.89509e-07
7.54525e-05
-2.03192e-07
7.54248e-05
-1.39887e-07
7.54115e-05
-4.69458e-08
7.54299e-05
-2.25716e-08
7.53962e-05
5.71918e-08
7.54075e-05
1.4237e-07
7.54153e-05
2.28482e-07
7.54287e-05
3.01034e-07
7.5437e-05
3.77074e-07
7.54548e-05
4.60566e-07
7.5504e-05
5.59584e-07
7.55425e-05
6.95611e-07
7.55779e-05
8.35973e-07
7.55887e-05
9.39425e-07
7.55531e-05
9.88584e-07
7.54258e-05
9.07774e-07
7.52169e-05
7.63484e-07
7.47635e-05
4.97528e-07
7.35672e-05
7.09966e-05
-5.08436e-07
6.99199e-05
-7.77429e-07
7.2313e-05
-8.76251e-07
7.34078e-05
-9.62753e-07
7.38393e-05
-9.08759e-07
7.39895e-05
-8.30943e-07
7.40579e-05
-7.22499e-07
7.40767e-05
-6.01446e-07
7.40735e-05
-4.92519e-07
7.40506e-05
-4.04107e-07
7.40277e-05
-3.17511e-07
7.40305e-05
-2.12068e-07
7.40046e-05
-1.13161e-07
7.40291e-05
-7.97981e-08
7.39771e-05
-2.30268e-08
7.39904e-05
6.34065e-08
7.39802e-05
1.55984e-07
7.40094e-05
2.38165e-07
7.40045e-05
3.32199e-07
7.40412e-05
4.08292e-07
7.40122e-05
4.90821e-07
7.40411e-05
5.96697e-07
7.40718e-05
7.15213e-07
7.40754e-05
8.43482e-07
7.40894e-05
9.31383e-07
7.41036e-05
9.27412e-07
7.39494e-05
8.66869e-07
7.38063e-05
7.7077e-07
7.33903e-05
5.05414e-07
7.23026e-05
6.99116e-05
-5.17497e-07
6.88217e-05
-7.86288e-07
7.10328e-05
-8.77456e-07
7.20207e-05
-8.84852e-07
7.24168e-05
-8.75885e-07
7.25125e-05
-8.0925e-07
7.25723e-05
-7.10511e-07
7.25932e-05
-6.3995e-07
7.25498e-05
-5.06339e-07
7.25847e-05
-4.25853e-07
7.25482e-05
-3.17202e-07
7.25569e-05
-2.07709e-07
7.2529e-05
-1.56604e-07
7.25245e-05
-7.80344e-08
7.25399e-05
3.61809e-09
7.25249e-05
7.98901e-08
7.24803e-05
1.4152e-07
7.24782e-05
2.1123e-07
7.24808e-05
3.07772e-07
7.25444e-05
4.00458e-07
7.25326e-05
5.27194e-07
7.25784e-05
6.22233e-07
7.25573e-05
7.27101e-07
7.25579e-05
8.25364e-07
7.25826e-05
8.68842e-07
7.25868e-05
9.06097e-07
7.2528e-05
8.83468e-07
7.23941e-05
7.87515e-07
7.20065e-05
5.17198e-07
7.10236e-05
6.88132e-05
-5.17483e-07
6.77145e-05
-7.94617e-07
6.9746e-05
-9.08444e-07
7.06403e-05
-9.12619e-07
7.09912e-05
-8.81587e-07
7.10944e-05
-8.12896e-07
7.11578e-05
-7.20784e-07
7.11721e-05
-6.37931e-07
7.11395e-05
-5.44961e-07
7.11454e-05
-4.24664e-07
7.11359e-05
-3.12502e-07
7.11288e-05
-2.45623e-07
7.1095e-05
-1.55302e-07
7.11076e-05
-8.65844e-08
7.11101e-05
9.2937e-09
7.10993e-05
5.72817e-08
7.10669e-05
1.31958e-07
7.10794e-05
2.10092e-07
7.10943e-05
2.90219e-07
7.11287e-05
4.22919e-07
7.11436e-05
5.17466e-07
7.11621e-05
6.46659e-07
7.1158e-05
7.4628e-07
7.11612e-05
8.08116e-07
7.11805e-05
9.11516e-07
7.11745e-05
9.52725e-07
7.11172e-05
9.26693e-07
7.09896e-05
8.02744e-07
7.06353e-05
5.20855e-07
6.97411e-05
6.7708e-05
-5.07506e-07
6.65891e-05
-7.94797e-07
6.84569e-05
-9.2843e-07
6.92635e-05
-9.60851e-07
6.95732e-05
-9.35017e-07
6.96729e-05
-8.53306e-07
6.97299e-05
-7.49663e-07
6.97457e-05
-6.44582e-07
6.97351e-05
-5.57038e-07
6.97355e-05
-4.32873e-07
6.97417e-05
-3.31929e-07
6.9734e-05
-2.49777e-07
6.97186e-05
-1.57439e-07
6.97151e-05
-8.7538e-08
6.9707e-05
-2.19137e-09
6.97049e-05
6.42884e-08
6.9696e-05
1.47076e-07
6.97018e-05
2.38605e-07
6.97162e-05
3.10223e-07
6.97301e-05
4.40734e-07
6.9752e-05
5.27954e-07
6.97495e-05
6.51141e-07
6.97537e-05
7.60408e-07
6.97507e-05
8.51514e-07
6.97543e-05
9.51039e-07
6.97413e-05
9.84598e-07
6.969e-05
9.44669e-07
6.95788e-05
8.03995e-07
6.92649e-05
5.12247e-07
6.84558e-05
6.65863e-05
-4.96374e-07
6.544e-05
-7.86967e-07
6.71566e-05
-9.28255e-07
6.78772e-05
-9.69285e-07
6.81424e-05
-9.46428e-07
6.82235e-05
-8.72531e-07
6.82675e-05
-7.56864e-07
6.82855e-05
-6.55476e-07
6.8284e-05
-5.48043e-07
6.82858e-05
-4.44765e-07
6.82904e-05
-3.44765e-07
6.82859e-05
-2.58729e-07
6.82799e-05
-1.68944e-07
6.82758e-05
-8.26957e-08
6.82691e-05
9.96884e-10
6.82687e-05
7.65223e-08
6.82672e-05
1.62805e-07
6.8275e-05
2.46486e-07
6.82863e-05
3.39631e-07
6.82943e-05
4.34032e-07
6.83109e-05
5.43393e-07
6.83036e-05
6.48384e-07
6.83024e-05
7.56384e-07
6.82947e-05
8.71742e-07
6.82908e-05
9.54769e-07
6.82745e-05
9.84325e-07
6.82369e-05
9.3955e-07
6.81519e-05
7.94313e-07
6.78828e-05
5.00053e-07
6.71589e-05
6.54405e-05
-4.83167e-07
6.42663e-05
-7.69738e-07
6.58388e-05
-9.09761e-07
6.64732e-05
-9.57079e-07
6.66945e-05
-9.34044e-07
6.67497e-05
-8.59839e-07
6.67738e-05
-7.55904e-07
6.67762e-05
-6.54778e-07
6.67978e-05
-5.43591e-07
6.6796e-05
-4.49173e-07
6.68187e-05
-3.52998e-07
6.68123e-05
-2.62626e-07
6.68257e-05
-1.74581e-07
6.68175e-05
-7.95095e-08
6.68094e-05
5.61617e-09
6.68169e-05
9.22651e-08
6.68259e-05
1.73621e-07
6.68233e-05
2.54726e-07
6.68332e-05
3.5737e-07
6.68267e-05
4.29161e-07
6.68352e-05
5.41943e-07
6.68122e-05
6.43489e-07
6.68251e-05
7.45781e-07
6.68003e-05
8.59239e-07
6.67789e-05
9.36693e-07
6.67736e-05
9.66427e-07
6.6759e-05
9.15581e-07
6.67075e-05
7.73669e-07
6.64808e-05
4.85145e-07
6.5843e-05
6.42687e-05
-4.6896e-07
6.30688e-05
-7.44149e-07
6.45006e-05
-8.70953e-07
6.5045e-05
-9.22301e-07
6.52272e-05
-9.03885e-07
6.5245e-05
-8.35283e-07
6.52453e-05
-7.30771e-07
6.52472e-05
-6.45527e-07
6.52669e-05
-5.24347e-07
6.52896e-05
-4.50372e-07
6.52914e-05
-3.5076e-07
6.53049e-05
-2.66522e-07
6.5315e-05
-1.77202e-07
6.53258e-05
-7.21918e-08
6.53344e-05
1.46479e-08
6.53299e-05
9.87518e-08
6.53362e-05
1.83995e-07
6.53403e-05
2.59735e-07
6.53263e-05
3.62784e-07
6.53144e-05
4.15927e-07
6.52891e-05
5.37788e-07
6.52926e-05
6.24408e-07
6.52822e-05
7.16484e-07
6.52698e-05
8.33282e-07
6.526e-05
9.06179e-07
6.52408e-05
9.22772e-07
6.52572e-05
8.69977e-07
6.52414e-05
7.43723e-07
6.5052e-05
4.68973e-07
6.45043e-05
6.30711e-05
-4.57572e-07
6.18511e-05
-7.15949e-07
6.31428e-05
-8.22829e-07
6.35941e-05
-8.53323e-07
6.3736e-05
-8.5809e-07
6.37334e-05
-7.9263e-07
6.36803e-05
-7.07966e-07
6.36831e-05
-6.07428e-07
6.37139e-05
-5.24592e-07
6.37239e-05
-4.33785e-07
6.37479e-05
-3.4781e-07
6.37617e-05
-2.54942e-07
6.3786e-05
-1.63461e-07
6.37913e-05
-7.99437e-08
6.37939e-05
1.82028e-08
6.38045e-05
1.13286e-07
6.38084e-05
1.76232e-07
6.3788e-05
2.60189e-07
6.37767e-05
3.3734e-07
6.37619e-05
4.26198e-07
6.374e-05
5.11504e-07
6.37325e-05
6.03743e-07
6.37173e-05
7.04722e-07
6.37137e-05
7.81496e-07
6.36837e-05
8.59594e-07
6.36831e-05
8.45401e-07
6.37465e-05
8.13998e-07
6.37481e-05
7.11576e-07
6.35965e-05
4.55844e-07
6.31436e-05
6.18516e-05
-4.49603e-07
6.06181e-05
-6.92738e-07
6.17686e-05
-7.8499e-07
6.21293e-05
-7.7826e-07
6.2219e-05
-7.77949e-07
6.22192e-05
-7.54191e-07
6.215e-05
-6.65189e-07
6.21099e-05
-5.88676e-07
6.2145e-05
-5.02648e-07
6.21576e-05
-4.13396e-07
6.21731e-05
-3.2767e-07
6.21939e-05
-2.51305e-07
6.22071e-05
-1.60372e-07
6.22235e-05
-6.67879e-08
6.22324e-05
2.57198e-08
6.22319e-05
9.80395e-08
6.2231e-05
1.70702e-07
6.22396e-05
2.49102e-07
6.22064e-05
3.17758e-07
6.21846e-05
4.20848e-07
6.21864e-05
4.89618e-07
6.21589e-05
5.85761e-07
6.21357e-05
6.67113e-07
6.21363e-05
7.48729e-07
6.21099e-05
7.72874e-07
6.21398e-05
7.60771e-07
6.22325e-05
7.72196e-07
6.2226e-05
6.86669e-07
6.21246e-05
4.47106e-07
6.17653e-05
6.06158e-05
-4.43577e-07
5.93737e-05
-6.77414e-07
6.0383e-05
-7.6621e-07
6.06599e-05
-7.48774e-07
6.06959e-05
-6.76367e-07
6.06818e-05
-6.72026e-07
6.06222e-05
-6.12823e-07
6.05327e-05
-5.74311e-07
6.05926e-05
-4.8115e-07
6.05491e-05
-3.93254e-07
6.05879e-05
-3.11957e-07
6.05826e-05
-2.36151e-07
6.06242e-05
-1.51416e-07
6.0608e-05
-6.39415e-08
6.06212e-05
3.15897e-08
6.06208e-05
1.00506e-07
6.0643e-05
1.47792e-07
6.06379e-05
2.21177e-07
6.06138e-05
3.27464e-07
6.0589e-05
3.87022e-07
6.05791e-05
4.7248e-07
6.05711e-05
5.71605e-07
6.05344e-05
6.23709e-07
6.05795e-05
6.61178e-07
6.05338e-05
6.62465e-07
6.05991e-05
7.27546e-07
6.07014e-05
7.56863e-07
6.06951e-05
6.72847e-07
6.06499e-05
4.41612e-07
6.03764e-05
5.9369e-05
-4.39049e-07
5.81216e-05
-6.67099e-07
5.89904e-05
-7.58286e-07
5.91908e-05
-7.53406e-07
5.91817e-05
-6.701e-07
5.91376e-05
-5.82672e-07
5.91001e-05
-5.79346e-07
5.89951e-05
-5.19493e-07
5.90384e-05
-4.53277e-07
5.89771e-05
-3.86029e-07
5.90071e-05
-3.05735e-07
5.90036e-05
-2.28731e-07
5.90431e-05
-1.52283e-07
5.90307e-05
-6.89628e-08
5.9052e-05
-7.96358e-09
5.90352e-05
6.8689e-08
5.90867e-05
1.56841e-07
5.90995e-05
2.36338e-07
5.90721e-05
3.09234e-07
5.9023e-05
3.91792e-07
5.9026e-05
4.63639e-07
5.89978e-05
5.22595e-07
5.89668e-05
5.7202e-07
5.90221e-05
5.90801e-07
5.90196e-05
6.48935e-07
5.90898e-05
7.44696e-07
5.916e-05
7.5723e-07
5.91769e-05
6.6625e-07
5.91798e-05
4.38522e-07
5.89827e-05
5.8116e-05
-4.34429e-07
5.68638e-05
-6.5726e-07
5.75918e-05
-7.50037e-07
5.77222e-05
-7.58191e-07
5.76749e-05
-7.04021e-07
5.76109e-05
-6.13429e-07
5.75743e-05
-5.67236e-07
5.75275e-05
-4.77068e-07
5.75232e-05
-4.40224e-07
5.75024e-05
-3.6935e-07
5.75157e-05
-3.07542e-07
5.75205e-05
-2.18842e-07
5.75377e-05
-1.49794e-07
5.75413e-05
-8.89562e-08
5.75526e-05
-2.59023e-08
5.75523e-05
5.62868e-08
5.75731e-05
1.56742e-07
5.75836e-05
2.3675e-07
5.75712e-05
2.97661e-07
5.75472e-05
3.78414e-07
5.75388e-05
4.46932e-07
5.75232e-05
4.86655e-07
5.75085e-05
5.64035e-07
5.75233e-05
6.18707e-07
5.75349e-05
6.93218e-07
5.75794e-05
7.61096e-07
5.76307e-05
7.5541e-07
5.76704e-05
6.59765e-07
5.77131e-05
4.35294e-07
5.75851e-05
5.68588e-05
-4.22758e-07
5.5603e-05
-6.42955e-07
5.61915e-05
-7.35667e-07
5.62537e-05
-7.49044e-07
5.617e-05
-7.08688e-07
5.60864e-05
-6.36013e-07
5.60455e-05
-5.66946e-07
5.60204e-05
-4.85384e-07
5.60107e-05
-4.29978e-07
5.60087e-05
-3.60255e-07
5.60223e-05
-2.90615e-07
5.60292e-05
-2.16132e-07
5.60378e-05
-1.44652e-07
5.60446e-05
-8.49001e-08
5.60498e-05
-1.43732e-08
5.60537e-05
6.34673e-08
5.6056e-05
1.51327e-07
5.60542e-05
2.22533e-07
5.6051e-05
2.88091e-07
5.60478e-05
3.57324e-07
5.60419e-05
4.24913e-07
5.60331e-05
4.87113e-07
5.60209e-05
5.63065e-07
5.60151e-05
6.31016e-07
5.60204e-05
7.0603e-07
5.60522e-05
7.55301e-07
5.61035e-05
7.43993e-07
5.61652e-05
6.47385e-07
5.62476e-05
4.24395e-07
5.61871e-05
5.55998e-05
-4.02737e-07
5.43347e-05
-6.21394e-07
5.47928e-05
-7.15502e-07
5.47865e-05
-7.3025e-07
5.4666e-05
-6.98084e-07
5.45634e-05
-6.29081e-07
5.45116e-05
-5.62232e-07
5.4492e-05
-4.82098e-07
5.44841e-05
-4.16433e-07
5.4496e-05
-3.50067e-07
5.45075e-05
-2.82949e-07
5.45175e-05
-2.09831e-07
5.45279e-05
-1.44428e-07
5.45321e-05
-7.76655e-08
5.45368e-05
-1.68609e-08
5.45413e-05
6.24799e-08
5.45464e-05
1.48974e-07
5.45471e-05
2.24517e-07
5.45444e-05
2.82224e-07
5.45318e-05
3.45304e-07
5.45212e-05
4.07198e-07
5.45136e-05
4.75667e-07
5.45053e-05
5.5232e-07
5.44873e-05
6.23276e-07
5.44902e-05
6.95705e-07
5.45164e-05
7.3764e-07
5.45715e-05
7.25225e-07
5.46597e-05
6.2673e-07
5.47843e-05
4.04935e-07
5.47916e-05
5.43339e-05
-3.8209e-07
5.30545e-05
-5.93921e-07
5.3393e-05
-6.85051e-07
5.33188e-05
-7.0542e-07
5.31624e-05
-6.7473e-07
5.30383e-05
-6.09391e-07
5.29827e-05
-5.45958e-07
5.2965e-05
-4.69444e-07
5.29572e-05
-4.04113e-07
5.29719e-05
-3.3983e-07
5.2983e-05
-2.72379e-07
5.29985e-05
-2.06112e-07
5.30041e-05
-1.38338e-07
5.30107e-05
-7.58192e-08
5.30058e-05
-1.05226e-08
5.30245e-05
6.79226e-08
5.30306e-05
1.41127e-07
5.30214e-05
2.12444e-07
5.30167e-05
2.74191e-07
5.30033e-05
3.3458e-07
5.29856e-05
3.97292e-07
5.29799e-05
4.56881e-07
5.29611e-05
5.357e-07
5.29551e-05
6.06439e-07
5.29588e-05
6.67835e-07
5.29738e-05
7.11169e-07
5.30317e-05
6.94971e-07
5.31525e-05
5.99242e-07
5.3321e-05
3.84584e-07
5.33951e-05
5.30566e-05
-3.65436e-07
5.17651e-05
-5.62689e-07
5.19891e-05
-6.4079e-07
5.18463e-05
-6.66033e-07
5.166e-05
-6.3523e-07
5.15043e-05
-5.78153e-07
5.14337e-05
-5.21059e-07
5.1412e-05
-4.59699e-07
5.14162e-05
-3.90057e-07
5.14324e-05
-3.27366e-07
5.14393e-05
-2.66784e-07
5.14534e-05
-1.99328e-07
5.14661e-05
-1.38494e-07
5.14721e-05
-6.17529e-08
5.14788e-05
4.8034e-10
5.14772e-05
6.69158e-08
5.14745e-05
1.24349e-07
5.14745e-05
1.9535e-07
5.14776e-05
2.59372e-07
5.14611e-05
3.29357e-07
5.14504e-05
3.80669e-07
5.14297e-05
4.49204e-07
5.1419e-05
5.12176e-07
5.14106e-05
5.76408e-07
5.14111e-05
6.33459e-07
5.14356e-05
6.73697e-07
5.1476e-05
6.50393e-07
5.16468e-05
5.6735e-07
5.18534e-05
3.6754e-07
5.19944e-05
5.17699e-05
-3.52141e-07
5.04708e-05
-5.33298e-07
5.05811e-05
-5.94403e-07
5.03691e-05
-6.01837e-07
5.01534e-05
-5.92097e-07
4.99719e-05
-5.45824e-07
4.98705e-05
-4.95941e-07
4.98655e-05
-4.35413e-07
4.98589e-05
-3.81259e-07
4.98829e-05
-3.17335e-07
4.98926e-05
-2.5542e-07
4.99063e-05
-1.93932e-07
4.99175e-05
-1.27281e-07
4.99309e-05
-6.58049e-08
4.9931e-05
8.36292e-11
4.99416e-05
6.58494e-08
4.99289e-05
1.29479e-07
4.99188e-05
1.70966e-07
4.99075e-05
2.51541e-07
4.99162e-05
3.12023e-07
4.99025e-05
3.71629e-07
4.99016e-05
4.28132e-07
4.98764e-05
4.89127e-07
4.98647e-05
5.44859e-07
4.98748e-05
5.85851e-07
4.98826e-05
6.32373e-07
4.99579e-05
6.0116e-07
5.01526e-05
5.35874e-07
5.03804e-05
3.53126e-07
5.05887e-05
5.04774e-05
-3.41201e-07
4.91756e-05
-5.10918e-07
4.91732e-05
-5.62359e-07
4.88942e-05
-5.42433e-07
4.8641e-05
-5.35873e-07
4.84587e-05
-4.97849e-07
4.83029e-05
-4.84009e-07
4.83081e-05
-4.00737e-07
4.82813e-05
-3.68628e-07
4.83315e-05
-3.03951e-07
4.83271e-05
-2.4614e-07
4.83398e-05
-1.80931e-07
4.83599e-05
-1.27225e-07
4.83777e-05
-5.26265e-08
4.83873e-05
-1.73638e-08
4.8392e-05
5.53858e-08
4.83779e-05
1.21589e-07
4.83724e-05
1.75303e-07
4.83675e-05
2.38004e-07
4.83665e-05
3.13701e-07
4.83591e-05
3.45083e-07
4.83595e-05
4.06261e-07
4.83425e-05
4.73368e-07
4.83109e-05
4.9526e-07
4.83193e-05
5.68413e-07
4.83448e-05
5.57207e-07
4.84351e-05
5.59546e-07
4.86498e-05
5.0933e-07
4.89047e-05
3.40488e-07
4.91808e-05
4.91823e-05
-3.32425e-07
4.78832e-05
-4.96057e-07
4.77709e-05
-5.48178e-07
4.74303e-05
-5.27246e-07
4.714e-05
-5.00235e-07
4.69659e-05
-4.88068e-07
4.6828e-05
-4.29308e-07
4.6833e-05
-3.97987e-07
4.67679e-05
-3.27507e-07
4.68265e-05
-2.77349e-07
4.68018e-05
-2.22234e-07
4.68103e-05
-1.63386e-07
4.68239e-05
-1.07572e-07
4.68338e-05
-6.54912e-08
4.68257e-05
8.79578e-09
4.68653e-05
5.10379e-08
4.68167e-05
9.17188e-08
4.68238e-05
1.69387e-07
4.68526e-05
2.27131e-07
4.68286e-05
2.73568e-07
4.68167e-05
3.44643e-07
4.68375e-05
3.88309e-07
4.68071e-05
4.28177e-07
4.6794e-05
5.05311e-07
4.6831e-05
5.18916e-07
4.68258e-05
5.0938e-07
4.69384e-05
5.36824e-07
4.71419e-05
4.9089e-07
4.7436e-05
3.30349e-07
4.77764e-05
4.78886e-05
-3.2547e-07
4.65978e-05
-4.85965e-07
4.63788e-05
-5.44082e-07
4.59836e-05
-5.42661e-07
4.56676e-05
-4.97689e-07
4.54941e-05
-4.81496e-07
4.53891e-05
-4.15164e-07
4.53577e-05
-3.80213e-07
4.53306e-05
-3.04759e-07
4.5347e-05
-2.55077e-07
4.53404e-05
-1.99176e-07
4.53468e-05
-1.56703e-07
4.53494e-05
-1.00462e-07
4.53575e-05
-5.16937e-08
4.53556e-05
1.14376e-08
4.53698e-05
5.35321e-08
4.53495e-05
9.38113e-08
4.5348e-05
1.46771e-07
4.53595e-05
2.03013e-07
4.5346e-05
2.54831e-07
4.53528e-05
3.30647e-07
4.53482e-05
3.85159e-07
4.53345e-05
4.21939e-07
4.53271e-05
4.82351e-07
4.53407e-05
4.98743e-07
4.53746e-05
5.22936e-07
4.54761e-05
5.32335e-07
4.56616e-05
4.79977e-07
4.59847e-05
3.22926e-07
4.63815e-05
4.6601e-05
-3.18706e-07
4.53211e-05
-4.75397e-07
4.49979e-05
-5.35868e-07
4.45524e-05
-5.42941e-07
4.42137e-05
-5.06909e-07
4.40265e-05
-4.6542e-07
4.39309e-05
-4.14331e-07
4.38944e-05
-3.58722e-07
4.38825e-05
-3.03718e-07
4.38862e-05
-2.50764e-07
4.3888e-05
-1.91698e-07
4.38969e-05
-1.53974e-07
4.3894e-05
-9.82937e-08
4.39031e-05
-4.67561e-08
4.39056e-05
3.19687e-09
4.39125e-05
5.13736e-08
4.39041e-05
9.7199e-08
4.39008e-05
1.48663e-07
4.39034e-05
1.95679e-07
4.38897e-05
2.5222e-07
4.38894e-05
3.12162e-07
4.38811e-05
3.70149e-07
4.38718e-05
4.17019e-07
4.38665e-05
4.61117e-07
4.38756e-05
5.045e-07
4.39194e-05
5.36854e-07
4.40167e-05
5.29668e-07
4.42089e-05
4.71334e-07
4.45521e-05
3.16565e-07
4.4999e-05
4.53226e-05
-3.10696e-07
4.40533e-05
-4.62205e-07
4.36277e-05
-5.21192e-07
4.31342e-05
-5.28034e-07
4.27714e-05
-4.9896e-07
4.25682e-05
-4.51951e-07
4.24721e-05
-3.97762e-07
4.24337e-05
-3.49227e-07
4.24227e-05
-2.95097e-07
4.24261e-05
-2.42422e-07
4.24342e-05
-1.92411e-07
4.24396e-05
-1.47117e-07
4.24385e-05
-9.40407e-08
4.24487e-05
-4.61222e-08
4.24519e-05
2.78599e-09
4.24543e-05
4.68094e-08
4.2448e-05
9.52076e-08
4.24459e-05
1.45482e-07
4.24494e-05
1.87579e-07
4.24392e-05
2.43348e-07
4.24379e-05
2.97943e-07
4.24231e-05
3.55816e-07
4.24162e-05
4.07214e-07
4.24049e-05
4.49243e-07
4.24024e-05
4.97721e-07
4.2458e-05
5.26899e-07
4.25613e-05
5.18243e-07
4.2769e-05
4.59954e-07
4.31337e-05
3.09107e-07
4.36282e-05
4.40536e-05
-2.97599e-07
4.27962e-05
-4.45475e-07
4.22702e-05
-5.03221e-07
4.17295e-05
-5.09545e-07
4.1343e-05
-4.78573e-07
4.11228e-05
-4.33976e-07
4.10192e-05
-3.84486e-07
4.09752e-05
-3.34811e-07
4.0972e-05
-2.82308e-07
4.09723e-05
-2.35586e-07
4.0983e-05
-1.93241e-07
4.09947e-05
-1.38859e-07
4.09983e-05
-9.03758e-08
4.10012e-05
-4.62228e-08
4.10076e-05
-7.91331e-10
4.1004e-05
4.57634e-08
4.10123e-05
9.46918e-08
4.10052e-05
1.40604e-07
4.10015e-05
1.82968e-07
4.09958e-05
2.32281e-07
4.09823e-05
2.84217e-07
4.09759e-05
3.35269e-07
4.0968e-05
3.83372e-07
4.09656e-05
4.46344e-07
4.09855e-05
4.82628e-07
4.10126e-05
5.10924e-07
4.11195e-05
5.01796e-07
4.13436e-05
4.44595e-07
4.17291e-05
2.97449e-07
4.22702e-05
4.2795e-05
-2.81095e-07
4.15455e-05
-4.24452e-07
4.09261e-05
-4.79214e-07
4.03384e-05
-4.86678e-07
3.99281e-05
-4.52804e-07
3.96868e-05
-4.15564e-07
3.95789e-05
-3.6321e-07
3.95358e-05
-3.21074e-07
3.95244e-05
-2.67163e-07
3.95227e-05
-2.21579e-07
3.95308e-05
-1.94306e-07
3.95364e-05
-1.33822e-07
3.95672e-05
-8.60518e-08
3.95691e-05
-4.94813e-08
3.95659e-05
5.18572e-09
3.95624e-05
3.97327e-08
3.95635e-05
8.8773e-08
3.95661e-05
1.34862e-07
3.95695e-05
1.73856e-07
3.9565e-05
2.30173e-07
3.95614e-05
2.70594e-07
3.95436e-05
3.20294e-07
3.95466e-05
3.79093e-07
3.95405e-05
4.13647e-07
3.95416e-05
4.57104e-07
3.958e-05
4.8766e-07
3.9689e-05
4.78278e-07
3.99318e-05
4.2423e-07
4.03376e-05
2.81679e-07
4.09253e-05
4.15441e-05
-2.66127e-07
4.03006e-05
-4.00193e-07
3.95935e-05
-4.46867e-07
3.89582e-05
-4.60262e-07
3.85296e-05
-4.24239e-07
3.82664e-05
-3.91164e-07
3.81468e-05
-3.52661e-07
3.81055e-05
-3.03601e-07
3.8095e-05
-2.60638e-07
3.80977e-05
-2.12398e-07
3.81028e-05
-1.65268e-07
3.81105e-05
-1.29842e-07
3.81161e-05
-9.53618e-08
3.81231e-05
-4.58437e-08
3.81373e-05
-3.51508e-09
3.81402e-05
4.59822e-08
3.81404e-05
9.29705e-08
3.81405e-05
1.24296e-07
3.81277e-05
1.80626e-07
3.81336e-05
2.12186e-07
3.81088e-05
2.6887e-07
3.81154e-05
3.03718e-07
3.80981e-05
3.51028e-07
3.81014e-05
3.93262e-07
3.81098e-05
4.25557e-07
3.81485e-05
4.54444e-07
3.82603e-05
4.46091e-07
3.85318e-05
4.00078e-07
3.89569e-05
2.66386e-07
3.95922e-05
4.02993e-05
-2.53757e-07
3.90643e-05
-3.76534e-07
3.82723e-05
-4.1318e-07
3.75901e-05
-4.18177e-07
3.71473e-05
-4.0339e-07
3.68544e-05
-3.71274e-07
3.67369e-05
-3.36973e-07
3.66929e-05
-2.88166e-07
3.66888e-05
-2.52783e-07
3.66926e-05
-2.04968e-07
3.67065e-05
-1.58006e-07
3.67106e-05
-1.21684e-07
3.67118e-05
-8.76655e-08
3.67169e-05
-3.66567e-08
3.67307e-05
-4.71484e-09
3.67294e-05
4.51634e-08
3.67316e-05
8.08828e-08
3.67239e-05
1.28329e-07
3.67258e-05
1.61286e-07
3.67153e-05
2.14967e-07
3.67243e-05
2.50261e-07
3.67027e-05
2.9387e-07
3.66994e-05
3.32579e-07
3.66867e-05
3.685e-07
3.66857e-05
3.98703e-07
3.67382e-05
4.15678e-07
3.68674e-05
4.13209e-07
3.71489e-05
3.76523e-07
3.7589e-05
2.53839e-07
3.82708e-05
3.90631e-05
-2.43321e-07
3.78397e-05
-3.56954e-07
3.69645e-05
-3.86247e-07
3.6237e-05
-3.71186e-07
3.57748e-05
-3.77578e-07
3.54796e-05
-3.51472e-07
3.53415e-05
-3.12216e-07
3.52863e-05
-2.76475e-07
3.52833e-05
-2.31595e-07
3.52971e-05
-2.02476e-07
3.53109e-05
-1.55166e-07
3.53239e-05
-1.16182e-07
3.53236e-05
-7.80881e-08
3.5322e-05
-3.78383e-08
3.53334e-05
2.8519e-09
3.5334e-05
3.65731e-08
3.53485e-05
7.9644e-08
3.53356e-05