/*--------------------------------*- C++ -*----------------------------------*\
| =========                 |                                                 |
| \\      /  F ield         | OpenFOAM: The Open Source CFD Toolbox           |
|  \\    /   O peration     | Version:  2312                                  |
|   \\  /    A nd           | Website:  www.openfoam.com                      |
|    \\/     M anipulation  |                                                 |
\*---------------------------------------------------------------------------*/
FoamFile
{
    version     2.0;
    format      ascii;
    arch        "LSB;label=32;scalar=64";
    class       surfaceScalarField;
    location    "0.01";
    object      phi.particles;
}
// * * * * * * * * * * * * * * * * * * * * * * * * * * * * * * * * * * * * * //

dimensions      [0 3 -1 0 0 0 0];

oriented        oriented;

internalField   nonuniform List<scalar> 
11770
(
1.31747e-06
3.2503e-06
1.18236e-06
6.02055e-06
8.19863e-07
7.26092e-06
6.0358e-07
7.69445e-06
4.51065e-07
7.8196e-06
3.43159e-07
7.83678e-06
2.65625e-07
7.82448e-06
2.07106e-07
7.80788e-06
1.61369e-07
7.79358e-06
1.24408e-07
7.78266e-06
9.35443e-08
7.77458e-06
6.69067e-08
7.76896e-06
4.31162e-08
7.76508e-06
2.10893e-08
7.76267e-06
-9.82083e-11
7.76154e-06
-2.12885e-08
7.76155e-06
-4.33181e-08
7.76264e-06
-6.70944e-08
7.76502e-06
-9.36821e-08
7.76876e-06
-1.24474e-07
7.7743e-06
-1.61363e-07
7.7824e-06
-2.0703e-07
7.79334e-06
-2.65488e-07
7.80768e-06
-3.43003e-07
7.82441e-06
-4.50936e-07
7.83689e-06
-6.03494e-07
7.81975e-06
-8.19817e-07
7.69458e-06
-1.18234e-06
7.261e-06
-1.31745e-06
6.02058e-06
3.25033e-06
1.82304e-06
4.22502e-06
1.70011e-06
8.24886e-06
1.20029e-06
1.02787e-05
7.75893e-07
1.11862e-05
5.03579e-07
1.15225e-05
3.4556e-07
1.16123e-05
2.5236e-07
1.16148e-05
1.92257e-07
1.15936e-05
1.4917e-07
1.15704e-05
1.15427e-07
1.15511e-05
8.73423e-08
1.15364e-05
6.28278e-08
1.15259e-05
4.06572e-08
1.15187e-05
1.9943e-08
1.15142e-05
-1.26819e-10
1.15121e-05
-2.02189e-08
1.15121e-05
-4.09873e-08
1.15141e-05
-6.31885e-08
1.15185e-05
-8.7608e-08
1.15255e-05
-1.15512e-07
1.15357e-05
-1.491e-07
1.15504e-05
-1.92032e-07
1.15698e-05
-2.51987e-07
1.15931e-05
-3.45175e-07
1.16146e-05
-5.03332e-07
1.16125e-05
-7.75804e-07
1.15228e-05
-1.2003e-06
1.11865e-05
-1.70014e-06
1.02788e-05
-1.82305e-06
8.24893e-06
4.22509e-06
1.23248e-06
3.88575e-06
1.29964e-06
8.16968e-06
1.01523e-06
1.04339e-05
6.94824e-07
1.15538e-05
4.53118e-07
1.20263e-05
3.00714e-07
1.21838e-05
2.10741e-07
1.22126e-05
1.56231e-07
1.2198e-05
1.2001e-07
1.21742e-05
9.29462e-08
1.21523e-05
7.08002e-08
1.21349e-05
5.12875e-08
1.21224e-05
3.339e-08
1.21136e-05
1.64451e-08
1.21083e-05
-1.41747e-10
1.21057e-05
-1.67714e-08
1.21058e-05
-3.38032e-08
1.21082e-05
-5.17793e-08
1.21135e-05
-7.11885e-08
1.21217e-05
-9.30812e-08
1.21338e-05
-1.19906e-07
1.21512e-05
-1.55897e-07
1.21731e-05
-2.10193e-07
1.2197e-05
-3.00148e-07
1.22121e-05
-4.5274e-07
1.21839e-05
-6.94677e-07
1.20266e-05
-1.01524e-06
1.15542e-05
-1.2997e-06
1.04341e-05
-1.23251e-06
8.16975e-06
3.88588e-06
6.3942e-07
3.7066e-06
7.27533e-07
8.07824e-06
6.22506e-07
1.04582e-05
4.64498e-07
1.16743e-05
3.25092e-07
1.22217e-05
2.26385e-07
1.24261e-05
1.62918e-07
1.24789e-05
1.22754e-07
1.2474e-05
9.54558e-08
1.24535e-05
7.47883e-08
1.24319e-05
5.76079e-08
1.2414e-05
4.20958e-08
1.24007e-05
2.76185e-08
1.23914e-05
1.36707e-08
1.2386e-05
-1.14747e-10
1.23834e-05
-1.4023e-08
1.23835e-05
-2.80842e-08
1.2386e-05
-4.27692e-08
1.23917e-05
-5.81341e-08
1.24002e-05
-7.49459e-08
1.24126e-05
-9.53624e-08
1.24303e-05
-1.22407e-07
1.24518e-05
-1.62238e-07
1.24725e-05
-2.25584e-07
1.24779e-05
-3.24606e-07
1.24258e-05
-4.64312e-07
1.22216e-05
-6.22499e-07
1.16747e-05
-7.27692e-07
1.04584e-05
-6.39517e-07
8.07819e-06
3.70677e-06
2.52614e-07
3.56742e-06
3.0807e-07
7.90493e-06
2.89796e-07
1.03145e-05
2.38626e-07
1.15687e-05
1.83797e-07
1.21564e-05
1.40144e-07
1.23923e-05
1.08511e-07
1.24637e-05
8.68786e-08
1.2469e-05
7.04362e-08
1.2453e-05
5.69606e-08
1.24331e-05
4.48761e-08
1.24155e-05
3.3334e-08
1.24022e-05
2.23195e-08
1.23927e-05
1.10837e-08
1.23873e-05
-9.43087e-11
1.23848e-05
-1.13764e-08
1.23854e-05
-2.26134e-08
1.23876e-05
-3.42482e-08
1.23935e-05
-4.56954e-08
1.24022e-05
-5.72319e-08
1.24142e-05
-7.04642e-08
1.24311e-05
-8.65186e-08
1.24507e-05
-1.07769e-07
1.24669e-05
-1.39171e-07
1.24621e-05
-1.8331e-07
1.23912e-05
-2.38225e-07
1.21556e-05
-2.89735e-07
1.15691e-05
-3.0839e-07
1.03147e-05
-2.52825e-07
7.90473e-06
3.56757e-06
3.7412e-08
3.43831e-06
5.91148e-08
7.67185e-06
7.25685e-08
1.00441e-05
7.54111e-08
1.12941e-05
7.10497e-08
1.1896e-05
6.44884e-08
1.21492e-05
5.78554e-08
1.22343e-05
5.19177e-08
1.22482e-05
4.54771e-08
1.22373e-05
3.86765e-08
1.222e-05
3.18575e-08
1.2204e-05
2.42421e-08
1.2191e-05
1.69059e-08
1.21814e-05
8.53148e-09
1.21754e-05
1.03882e-10
1.21729e-05
-8.71082e-09
1.21742e-05
-1.68234e-08
1.21762e-05
-2.53347e-08
1.21819e-05
-3.3127e-08
1.21907e-05
-3.93711e-08
1.22024e-05
-4.57643e-08
1.22176e-05
-5.15446e-08
1.22349e-05
-5.71627e-08
1.22458e-05
-6.36359e-08
1.22322e-05
-7.04547e-08
1.21477e-05
-7.43732e-08
1.18953e-05
-7.2267e-08
1.12945e-05
-5.93934e-08
1.00444e-05
-3.76117e-08
7.67169e-06
3.43836e-06
-8.30936e-08
3.31166e-06
-8.76636e-08
7.40122e-06
-6.26696e-08
9.69017e-06
-3.31009e-08
1.0904e-05
-1.04732e-08
1.14962e-05
5.16133e-09
1.1753e-05
1.50919e-08
1.18457e-05
2.06401e-08
1.18655e-05
2.21018e-08
1.18596e-05
2.1136e-08
1.18448e-05
1.8686e-08
1.18311e-05
1.48265e-08
1.18194e-05
1.07624e-08
1.18102e-05
5.87898e-09
1.18044e-05
8.21028e-10
1.18015e-05
-6.11757e-09
1.18017e-05
-1.10527e-08
1.18042e-05
-1.60344e-08
1.18099e-05
-2.03691e-08
1.1818e-05
-2.21934e-08
1.18297e-05
-2.23642e-08
1.18427e-05
-2.03701e-08
1.18571e-05
-1.43817e-08
1.18632e-05
-4.20141e-09
1.18437e-05
1.15329e-08
1.17516e-05
3.44921e-08
1.14953e-05
6.32362e-08
1.09042e-05
8.77168e-08
9.69077e-06
8.3134e-08
7.40129e-06
3.31169e-06
-1.50172e-07
3.1839e-06
-1.74242e-07
7.1075e-06
-1.43214e-07
9.28613e-06
-1.0153e-07
1.04376e-05
-6.47646e-08
1.10012e-05
-3.7159e-08
1.12492e-05
-1.8486e-08
1.13412e-05
-5.02704e-09
1.13651e-05
1.37952e-09
1.13614e-05
5.63895e-09
1.13502e-05
6.72138e-09
1.1338e-05
5.78399e-09
1.13278e-05
5.02993e-09
1.13205e-05
2.60698e-09
1.13154e-05
6.71069e-10
1.13122e-05
-3.30462e-09
1.1312e-05
-5.09701e-09
1.13143e-05
-7.28568e-09
1.13196e-05
-7.81137e-09
1.13263e-05
-6.69968e-09
1.13374e-05
-1.77804e-09
1.13489e-05
5.35496e-09
1.13601e-05
1.91428e-08
1.13632e-05
3.81797e-08
1.13397e-05
6.57796e-08
1.1247e-05
1.02999e-07
1.10005e-05
1.44221e-07
1.04372e-05
1.74532e-07
9.28663e-06
1.50402e-07
7.10768e-06
3.18392e-06
-1.8785e-07
3.05649e-06
-2.26658e-07
6.80363e-06
-1.92417e-07
8.85861e-06
-1.45032e-07
9.93098e-06
-1.00894e-07
1.04545e-05
-6.8167e-08
1.0686e-05
-4.32528e-08
1.07738e-05
-2.65411e-08
1.07982e-05
-1.55117e-08
1.07973e-05
-8.2999e-09
1.07889e-05
-3.88886e-09
1.0779e-05
-1.58458e-09
1.07706e-05
1.35487e-10
1.07635e-05
-6.61524e-10
1.07588e-05
6.23545e-10
1.07556e-05
-8.8982e-10
1.07558e-05
2.92125e-10
1.07587e-05
9.25661e-11
1.07628e-05
3.65959e-09
1.07697e-05
7.15531e-09
1.07783e-05
1.52741e-08
1.07881e-05
2.6507e-08
1.07971e-05
4.40132e-08
1.07979e-05
6.79299e-08
1.07737e-05
1.02791e-07
1.06863e-05
1.45964e-07
1.04548e-05
1.93823e-07
9.93111e-06
2.26966e-07
8.859e-06
1.88028e-07
6.80381e-06
3.05652e-06
-2.10267e-07
2.93143e-06
-2.60832e-07
6.49951e-06
-2.25482e-07
8.42763e-06
-1.73895e-07
9.41371e-06
-1.25788e-07
9.89238e-06
-8.96414e-08
1.01031e-05
-6.23605e-08
1.01849e-05
-4.25539e-08
1.02091e-05
-2.89051e-08
1.02097e-05
-1.95927e-08
1.02027e-05
-1.26119e-08
1.0196e-05
-8.65436e-09
1.01884e-05
-4.67374e-09
1.01821e-05
-3.31362e-09
1.01766e-05
8.55802e-10
1.01752e-05
2.01389e-09
1.01745e-05
4.42732e-09
1.01771e-05
7.44025e-09
1.01812e-05
1.23256e-08
1.0188e-05
1.88564e-08
1.01952e-05
2.94392e-08
1.02036e-05
4.28626e-08
1.02099e-05
6.27738e-08
1.02087e-05
8.99014e-08
1.01844e-05
1.26567e-07
1.01038e-05
1.74368e-07
9.89317e-06
2.26526e-07
9.41445e-06
2.61066e-07
8.42789e-06
2.10293e-07
6.49948e-06
2.93139e-06
-2.22428e-07
2.80726e-06
-2.83947e-07
6.19681e-06
-2.49951e-07
8.00383e-06
-1.93369e-07
8.90342e-06
-1.43846e-07
9.33471e-06
-1.03701e-07
9.52546e-06
-7.59181e-08
9.59921e-06
-5.47297e-08
9.62173e-06
-3.99875e-08
9.62395e-06
-2.72904e-08
9.62014e-06
-2.03231e-08
9.61211e-06
-1.44147e-08
9.60599e-06
-1.01155e-08
9.59994e-06
-3.77314e-09
9.59722e-06
-7.42465e-11
9.59451e-06
4.30093e-09
9.59359e-06
8.39046e-09
9.59583e-06
1.42304e-08
9.59985e-06
1.97202e-08
9.60597e-06
2.84882e-08
9.61369e-06
3.97064e-08
9.61925e-06
5.45977e-08
9.62496e-06
7.58545e-08
9.62195e-06
1.05485e-07
9.59915e-06
1.43635e-07
9.52539e-06
1.93836e-07
9.3353e-06
2.50023e-07
8.90393e-06
2.83818e-07
8.00338e-06
2.22223e-07
6.19654e-06
2.80715e-06
-2.25784e-07
2.68501e-06
-2.96952e-07
5.89405e-06
-2.68059e-07
7.59039e-06
-2.07023e-07
8.40881e-06
-1.54159e-07
8.79319e-06
-1.1351e-07
8.96163e-06
-8.49526e-08
9.02727e-06
-6.34474e-08
9.04822e-06
-4.70277e-08
9.05103e-06
-3.58093e-08
9.04667e-06
-2.61964e-08
9.04157e-06
-1.96628e-08
9.03563e-06
-1.20097e-08
9.03294e-06
-6.03115e-09
9.0278e-06
-7.56717e-10
9.02784e-06
6.01562e-09
9.02678e-06
1.2122e-08
9.02801e-06
1.92491e-08
9.03225e-06
2.7346e-08
9.03713e-06
3.43931e-08
9.04329e-06
4.84693e-08
9.05135e-06
6.23788e-08
9.05311e-06
8.50353e-08
9.05121e-06
1.14798e-07
9.02928e-06
1.54426e-07
8.96194e-06
2.07336e-07
8.79404e-06
2.67317e-07
8.40909e-06
2.96478e-07
7.58958e-06
2.25477e-07
5.89395e-06
2.6849e-06
-2.22955e-07
2.56404e-06
-2.97569e-07
5.59049e-06
-2.80348e-07
7.17958e-06
-2.15765e-07
7.93233e-06
-1.60571e-07
8.27061e-06
-1.19623e-07
8.41827e-06
-9.00141e-08
8.47493e-06
-6.94547e-08
8.4917e-06
-5.3728e-08
8.49519e-06
-4.08323e-08
8.49507e-06
-3.12954e-08
8.49008e-06
-2.17386e-08
8.48625e-06
-1.56384e-08
8.48206e-06
-6.25382e-09
8.4817e-06
-9.2661e-10
8.47766e-06
6.68563e-09
8.47834e-06
1.56343e-08
8.47966e-06
2.24007e-08
8.48302e-06
3.2463e-08
8.48966e-06
4.19161e-08
8.49533e-06
5.25746e-08
8.50041e-06
6.93639e-08
8.50441e-06
8.99464e-08
8.49925e-06
1.18575e-07
8.48003e-06
1.61602e-07
8.4236e-06
2.1547e-07
8.27404e-06
2.7983e-07
7.93548e-06
2.97538e-07
7.18002e-06
2.22824e-07
5.59078e-06
2.56398e-06
-2.15306e-07
2.44347e-06
-2.86965e-07
5.28564e-06
-2.82667e-07
6.76189e-06
-2.20198e-07
7.46998e-06
-1.63132e-07
7.76923e-06
-1.22516e-07
7.89774e-06
-9.42504e-08
7.94497e-06
-7.26202e-08
7.96083e-06
-5.55732e-08
7.96462e-06
-4.54839e-08
7.96266e-06
-3.35777e-08
7.96273e-06
-2.5405e-08
7.9573e-06
-1.5111e-08
7.95708e-06
-1.0024e-08
7.95311e-06
8.03914e-10
7.95532e-06
7.91892e-09
7.95129e-06
1.74513e-08
7.95367e-06
2.62482e-08
7.9579e-06
3.56176e-08
7.96685e-06
4.56561e-08
7.97272e-06
5.82246e-08
7.97881e-06
7.16845e-08
7.9785e-06
9.26901e-08
7.97452e-06
1.21791e-07
7.95785e-06
1.62705e-07
7.90957e-06
2.21024e-07
7.77723e-06
2.80756e-07
7.47143e-06
2.86624e-07
6.76285e-06
2.15125e-07
5.28585e-06
2.4433e-06
-2.0479e-07
2.3238e-06
-2.69397e-07
4.9796e-06
-2.6567e-07
6.33613e-06
-2.22556e-07
6.98864e-06
-1.63501e-07
7.27465e-06
-1.23431e-07
7.38825e-06
-9.38548e-08
7.43001e-06
-7.41434e-08
7.4391e-06
-5.8829e-08
7.44634e-06
-4.47713e-08
7.44802e-06
-3.64671e-08
7.44579e-06
-2.59237e-08
7.44181e-06
-1.89055e-08
7.4436e-06
-7.55504e-09
7.44589e-06
-1.36363e-09
7.44324e-06
9.2675e-09
7.43896e-06
1.93826e-08
7.44047e-06
3.01492e-08
7.4445e-06
3.81532e-08
7.45559e-06
4.96671e-08
7.46093e-06
5.85551e-08
7.46394e-06
7.36166e-08
7.46504e-06
9.3547e-08
7.45763e-06
1.21805e-07
7.44407e-06
1.62017e-07
7.40786e-06
2.20569e-07
7.28546e-06
2.63747e-07
6.98978e-06
2.68522e-07
6.33644e-06
2.04399e-07
4.97932e-06
2.32327e-06
-1.94703e-07
2.20559e-06
-2.49786e-07
4.67377e-06
-2.38035e-07
5.90647e-06
-2.03034e-07
6.48242e-06
-1.57607e-07
6.74116e-06
-1.21192e-07
6.85178e-06
-9.68983e-08
6.89496e-06
-7.1594e-08
6.91128e-06
-5.81905e-08
6.91463e-06
-4.71457e-08
6.91572e-06
-3.89441e-08
6.91677e-06
-2.48365e-08
6.91869e-06
-1.64327e-08
6.9181e-06
-9.97408e-09
6.91777e-06
-3.8058e-09
6.91663e-06
1.05593e-08
6.91732e-06
2.31492e-08
6.91512e-06
3.87495e-08
6.91251e-06
4.27915e-08
6.90481e-06
5.19649e-08
6.9013e-06
5.99338e-08
6.89871e-06
7.07076e-08
6.89657e-06
9.2835e-08
6.89577e-06
1.23083e-07
6.88432e-06
1.48767e-07
6.8376e-06
1.93299e-07
6.73476e-06
2.34574e-07
6.48122e-06
2.482e-07
5.90584e-06
1.93911e-07
4.67298e-06
2.20467e-06
-1.86315e-07
2.0843e-06
-2.33837e-07
4.37032e-06
-2.17876e-07
5.48204e-06
-1.77588e-07
5.97972e-06
-1.34589e-07
6.18491e-06
-1.07064e-07
6.26068e-06
-8.81707e-08
6.2886e-06
-6.99874e-08
6.29876e-06
-5.71823e-08
6.30093e-06
-4.59782e-08
6.30177e-06
-3.75237e-08
6.30301e-06
-2.50463e-08
6.30688e-06
-1.74443e-08
6.30545e-06
-1.0128e-08
6.3059e-06
-3.42948e-09
6.30474e-06
8.57014e-09
6.30622e-06
1.8649e-08
6.30259e-06
2.97139e-08
6.29923e-06
3.79309e-08
6.29305e-06
4.80177e-08
6.28899e-06
5.75777e-08
6.28714e-06
7.09979e-08
6.28581e-06
8.81622e-08
6.28505e-06
1.06938e-07
6.2782e-06
1.34351e-07
6.25108e-06
1.74661e-07
6.17896e-06
2.1607e-07
5.97759e-06
2.32864e-07
5.48116e-06
1.85604e-07
4.36955e-06
2.08376e-06
-1.76538e-07
1.96269e-06
-2.21175e-07
4.07291e-06
-2.06161e-07
5.07017e-06
-1.68525e-07
5.49636e-06
-1.29606e-07
5.65681e-06
-1.02848e-07
5.7062e-06
-8.51058e-08
5.71864e-06
-6.85459e-08
5.72147e-06
-5.64814e-08
5.72126e-06
-4.5239e-08
5.72155e-06
-3.57116e-08
5.72233e-06
-2.58365e-08
5.72397e-06
-1.73115e-08
5.7244e-06
-1.03685e-08
5.72457e-06
-2.67296e-09
5.72468e-06
6.62533e-09
5.72474e-06
1.67076e-08
5.72333e-06
2.69781e-08
5.72113e-06
3.57325e-08
5.71763e-06
4.66094e-08
5.71556e-06
5.66945e-08
5.71419e-06
7.0181e-08
5.71411e-06
8.62595e-08
5.71464e-06
1.03945e-07
5.71285e-06
1.30719e-07
5.70086e-06
1.67817e-07
5.65277e-06
2.05543e-07
5.49459e-06
2.2081e-07
5.06945e-06
1.76367e-07
4.0724e-06
1.96245e-06
-1.68504e-07
1.84364e-06
-2.11842e-07
3.78464e-06
-1.99015e-07
4.67413e-06
-1.65145e-07
5.03485e-06
-1.2938e-07
5.15734e-06
-1.02797e-07
5.18662e-06
-8.42646e-08
5.18749e-06
-6.80196e-08
5.18561e-06
-5.6049e-08
5.18305e-06
-4.44269e-08
5.18362e-06
-3.49897e-08
5.18336e-06
-2.54301e-08
5.18496e-06
-1.73042e-08
5.18506e-06
-9.86866e-09
5.18531e-06
-2.47114e-09
5.18552e-06
6.00366e-09
5.18604e-06
1.55308e-08
5.1857e-06
2.52231e-08
5.1845e-06
3.42667e-08
5.182e-06
4.55367e-08
5.18174e-06
5.61893e-08
5.17944e-06
6.95462e-08
5.18015e-06
8.5707e-08
5.18151e-06
1.04186e-07
5.18301e-06
1.31083e-07
5.182e-06
1.65589e-07
5.15383e-06
1.99235e-07
5.03354e-06
2.1182e-07
4.67352e-06
1.6848e-07
3.78435e-06
1.84353e-06
-1.61856e-07
1.7272e-06
-2.04532e-07
3.50552e-06
-1.94621e-07
4.29381e-06
-1.63861e-07
4.5963e-06
-1.30787e-07
4.68371e-06
-1.05146e-07
4.69497e-06
-8.42178e-08
4.68908e-06
-6.84782e-08
4.68429e-06
-5.48062e-08
4.68121e-06
-4.42994e-08
4.68067e-06
-3.39315e-08
4.68094e-06
-2.53645e-08
4.68253e-06
-1.71579e-08
4.68334e-06
-9.44918e-09
4.68378e-06
-1.83434e-09
4.68445e-06
6.18866e-09
4.68519e-06
1.51709e-08
4.68511e-06
2.38854e-08
4.68399e-06
3.41161e-08
4.68202e-06
4.34779e-08
4.6808e-06
5.57951e-08
4.67942e-06
6.85277e-08
4.68055e-06
8.50383e-08
4.68267e-06
1.06465e-07
4.68728e-06
1.32982e-07
4.69182e-06
1.65444e-07
4.68129e-06
1.95416e-07
4.59597e-06
2.04861e-07
4.29377e-06
1.61954e-07
3.50555e-06
1.72725e-06
-1.5493e-07
1.61256e-06
-1.96942e-07
3.23269e-06
-1.9027e-07
3.92534e-06
-1.64373e-07
4.17827e-06
-1.32984e-07
4.23913e-06
-1.06024e-07
4.2349e-06
-8.3734e-08
4.22235e-06
-6.78439e-08
4.21539e-06
-5.39173e-08
4.2117e-06
-4.3451e-08
4.21066e-06
-3.26045e-08
4.21152e-06
-2.46897e-08
4.2118e-06
-1.66526e-08
4.21322e-06
-8.7106e-09
4.21399e-06
-1.01459e-09
4.21509e-06
6.29365e-09
4.21641e-06
1.47066e-08
4.21748e-06
2.26142e-08
4.21626e-06
3.28188e-08
4.21539e-06
4.21915e-08
4.21355e-06
5.5281e-08
4.21297e-06
6.70529e-08
4.21233e-06
8.42787e-08
4.21697e-06
1.0653e-07
4.22294e-06
1.34936e-07
4.23475e-06
1.67068e-07
4.24076e-06
1.9135e-07
4.17962e-06
1.97362e-07
3.92602e-06
1.55078e-07
3.23305e-06
1.61276e-06
-1.46419e-07
1.49896e-06
-1.86396e-07
2.96248e-06
-1.81055e-07
3.5623e-06
-1.63389e-07
3.76877e-06
-1.33765e-07
3.81979e-06
-1.06448e-07
3.80227e-06
-8.24991e-08
3.78381e-06
-6.64583e-08
3.77353e-06
-5.27852e-08
3.76845e-06
-4.19767e-08
3.76715e-06
-3.23552e-08
3.7672e-06
-2.34944e-08
3.76923e-06
-1.58674e-08
3.77015e-06
-7.73819e-09
3.77184e-06
-8.37794e-11
3.77305e-06
7.01945e-09
3.77555e-06
1.41235e-08
3.77781e-06
2.23114e-08
3.77704e-06
3.13897e-08
3.77456e-06
4.11193e-08
3.77228e-06
5.27223e-08
3.77128e-06
6.66804e-08
3.77146e-06
8.19602e-08
3.77606e-06
1.06805e-07
3.78714e-06
1.36737e-07
3.8052e-06
1.65122e-07
3.82292e-06
1.81656e-07
3.77226e-06
1.8649e-07
3.56361e-06
1.46479e-07
2.96308e-06
1.49924e-06
-1.37022e-07
1.38632e-06
-1.72807e-07
2.69434e-06
-1.65674e-07
3.20149e-06
-1.5068e-07
3.35818e-06
-1.36106e-07
3.39574e-06
-1.04052e-07
3.39171e-06
-8.19545e-08
3.36282e-06
-6.44856e-08
3.35458e-06
-5.14142e-08
3.34627e-06
-4.10153e-08
3.34448e-06
-3.05645e-08
3.34572e-06
-2.24743e-08
3.34752e-06
-1.4486e-08
3.34803e-06
-7.00412e-09
3.34967e-06
7.51238e-10
3.35273e-06
7.84057e-09
3.35846e-06
1.43538e-08
3.36246e-06
2.10976e-08
3.35963e-06
2.96335e-08
3.35633e-06
3.95018e-08
3.35414e-06
5.10822e-08
3.35283e-06
6.42171e-08
3.35125e-06
8.2073e-08
3.35968e-06
1.04731e-07
3.36839e-06
1.37905e-07
3.3952e-06
1.52604e-07
3.40346e-06
1.6505e-07
3.36219e-06
1.72308e-07
3.20288e-06
1.36877e-07
2.69494e-06
1.38659e-06
-1.28142e-07
1.27527e-06
-1.59179e-07
2.42977e-06
-1.48676e-07
2.84432e-06
-1.28677e-07
2.94782e-06
-1.2155e-07
2.95402e-06
-1.0924e-07
2.95498e-06
-8.01921e-08
2.9501e-06
-6.32236e-08
2.94901e-06
-5.10533e-08
2.93376e-06
-3.83127e-08
2.93632e-06
-3.03229e-08
2.93386e-06
-2.12398e-08
2.94165e-06
-1.36727e-08
2.93899e-06
-4.47617e-09
2.94234e-06
3.46686e-09
2.94378e-06
1.02699e-08
2.95385e-06
1.24979e-08
2.95593e-06
1.97234e-08
2.95375e-06
2.72705e-08
2.9467e-06
3.80205e-08
2.94793e-06
4.81789e-08
2.94415e-06
6.38126e-08
2.94261e-06
7.96838e-08
2.95446e-06
1.09249e-07
2.96088e-06
1.2605e-07
2.96235e-06
1.2817e-07
2.95988e-06
1.46275e-07
2.94967e-06
1.57926e-07
2.84496e-06
1.27752e-07
2.43004e-06
1.27544e-06
-1.20974e-07
1.16693e-06
-1.48462e-07
2.17081e-06
-1.35944e-07
2.49451e-06
-1.12269e-07
2.54515e-06
-9.39162e-08
2.51836e-06
-8.83383e-08
2.49286e-06
-6.66258e-08
2.48882e-06
-6.89807e-08
2.47926e-06
-4.67124e-08
2.48898e-06
-3.89649e-08
2.48798e-06
-2.35659e-08
2.49136e-06
-2.26833e-08
2.48741e-06
-1.08874e-08
2.49084e-06
-2.59063e-09
2.4897e-06
1.1659e-08
2.48832e-06
1.2524e-08
2.48078e-06
1.06765e-08
2.47683e-06
1.3948e-08
2.47886e-06
2.79125e-08
2.48305e-06
3.36716e-08
2.4808e-06
4.45247e-08
2.48247e-06
6.65665e-08
2.48514e-06
6.98381e-08
2.47851e-06
8.4696e-08
2.48623e-06
9.57375e-08
2.49633e-06
1.08853e-07
2.51868e-06
1.32874e-07
2.54462e-06
1.47015e-07
2.49417e-06
1.20558e-07
2.17065e-06
1.16697e-06
-1.16409e-07
1.06188e-06
-1.41145e-07
1.91904e-06
-1.2856e-07
2.15488e-06
-1.04641e-07
2.15581e-06
-8.46079e-08
2.09989e-06
-7.20694e-08
2.05401e-06
-6.07436e-08
2.03148e-06
-5.30819e-08
2.02002e-06
-4.34578e-08
2.0218e-06
-3.49811e-08
2.02202e-06
-2.69295e-08
2.02378e-06
-2.01169e-08
2.02274e-06
-1.26362e-08
2.02414e-06
-5.38572e-09
2.02354e-06
3.24679e-09
2.02254e-06
8.46951e-09
2.01805e-06
1.22966e-08
2.01549e-06
1.79859e-08
2.01564e-06
2.62779e-08
2.01696e-06
3.44439e-08
2.01635e-06
4.35208e-08
2.01669e-06
5.39544e-08
2.01804e-06
6.25542e-08
2.01809e-06
7.32537e-08
2.02895e-06
8.50583e-08
2.05304e-06
1.01594e-07
2.09766e-06
1.25957e-07
2.15363e-06
1.40028e-07
2.15376e-06
1.16146e-07
1.91853e-06
1.06178e-06
-1.14311e-07
9.5737e-07
-1.36591e-07
1.67455e-06
-1.24451e-07
1.82662e-06
-1.01653e-07
1.78112e-06
-8.09855e-08
1.70048e-06
-6.73678e-08
1.63998e-06
-5.63502e-08
1.60817e-06
-4.85117e-08
1.59278e-06
-4.02045e-08
1.59094e-06
-3.31097e-08
1.59047e-06
-2.59846e-08
1.59143e-06
-1.95415e-08
1.5916e-06
-1.26266e-08
1.59264e-06
-6.35143e-09
1.59257e-06
1.31891e-09
1.59244e-06
6.86339e-09
1.58927e-06
1.20622e-08
1.58724e-06
1.79699e-08
1.58754e-06
2.56335e-08
1.58844e-06
3.31934e-08
1.58793e-06
4.1101e-08
1.58788e-06
4.97986e-08
1.58906e-06
5.82231e-08
1.59133e-06
6.85066e-08
1.60491e-06
8.11739e-08
1.63683e-06
9.90134e-08
1.69656e-06
1.22683e-07
1.77771e-06
1.36019e-07
1.82498e-06
1.14262e-07
1.6738e-06
9.571e-07
-1.11524e-07
8.53683e-07
-1.32968e-07
1.43762e-06
-1.21928e-07
1.51104e-06
-1.00845e-07
1.42185e-06
-8.02713e-08
1.3191e-06
-6.55878e-08
1.24723e-06
-5.44507e-08
1.21026e-06
-4.48061e-08
1.19348e-06
-3.78172e-08
1.18853e-06
-3.13722e-08
1.18777e-06
-2.4921e-08
1.18844e-06
-1.87851e-08
1.18881e-06
-1.24771e-08
1.1897e-06
-6.66628e-09
1.1897e-06
-5.84446e-10
1.1902e-06
5.34695e-09
1.18897e-06
1.20627e-08
1.18825e-06
1.82397e-08
1.1882e-06
2.49195e-08
1.18818e-06
3.18824e-08
1.18745e-06
3.88794e-08
1.18744e-06
4.59424e-08
1.18857e-06
5.50264e-08
1.19332e-06
6.62971e-08
1.20914e-06
8.07193e-08
1.24488e-06
9.88079e-08
1.31383e-06
1.21374e-07
1.41757e-06
1.3308e-07
1.50912e-06
1.11653e-07
1.43677e-06
8.53418e-07
-1.07127e-07
7.52405e-07
-1.29045e-07
1.20775e-06
-1.20733e-07
1.20757e-06
-1.00792e-07
1.08075e-06
-8.11184e-08
9.56832e-07
-6.44329e-08
8.78017e-07
-5.24947e-08
8.37667e-07
-4.27852e-08
8.19416e-07
-3.57404e-08
8.13713e-07
-2.97434e-08
8.11786e-07
-2.39678e-08
8.12052e-07
-1.79333e-08
8.12734e-07
-1.2331e-08
8.13283e-07
-6.20189e-09
8.13677e-07
-1.06957e-09
8.13866e-07
5.03773e-09
8.14166e-07
1.18187e-08
8.14051e-07
1.78772e-08
8.14493e-07
2.38779e-08
8.1427e-07
3.06169e-08
8.13788e-07
3.66648e-08
8.13245e-07
4.35041e-08
8.14462e-07
5.23328e-08
8.20197e-07
6.38318e-08
8.37996e-07
7.97941e-08
8.76802e-07
9.98393e-08
9.52705e-07
1.21583e-07
1.07594e-06
1.29966e-07
1.20557e-06
1.0757e-07
1.20691e-06
7.52212e-07
-1.0148e-07
6.53245e-07
-1.23579e-07
9.82747e-07
-1.18189e-07
9.13125e-07
-1.01538e-07
7.55159e-07
-8.04414e-08
6.16564e-07
-6.27952e-08
5.30498e-07
-5.1033e-08
4.8807e-07
-4.01005e-08
4.71105e-07
-3.43907e-08
4.62176e-07
-2.83328e-08
4.5999e-07
-2.28573e-08
4.59482e-07
-1.72491e-08
4.59737e-07
-1.17835e-08
4.60225e-07
-5.96842e-09
4.60323e-07
-8.08497e-10
4.60721e-07
4.85398e-09
4.61324e-07
1.20462e-08
4.62945e-07
1.74928e-08
4.6201e-07
2.29143e-08
4.62109e-07
2.87968e-08
4.62106e-07
3.48124e-08
4.62492e-07
4.09532e-08
4.633e-07
5.02106e-08
4.70861e-07
6.09588e-08
4.88041e-07
7.80089e-08
5.29541e-07
1.0029e-07
6.10425e-07
1.20392e-07
7.50456e-07
1.25225e-07
9.11308e-07
1.0224e-07
9.82143e-07
6.53157e-07
-9.50767e-08
5.55686e-07
-1.15452e-07
7.61723e-07
-1.10894e-07
6.24446e-07
-1.00588e-07
4.36148e-07
-7.86729e-08
2.95458e-07
-6.01319e-08
2.03545e-07
-4.67192e-08
1.61969e-07
-4.02243e-08
1.39576e-07
-3.29343e-08
1.35319e-07
-2.74623e-08
1.30443e-07
-2.20994e-08
1.28144e-07
-1.6563e-08
1.27706e-07
-1.14429e-08
1.27905e-07
-5.47119e-09
1.27805e-07
5.85838e-11
1.27532e-07
6.41019e-09
1.26049e-07
1.06421e-08
1.24956e-07
1.71593e-08
1.28504e-07
2.21979e-08
1.29901e-07
2.75768e-08
1.31174e-07
3.27124e-08
1.32788e-07
3.97779e-08
1.33858e-07
4.62873e-08
1.37455e-07
5.80677e-08
1.57498e-07
7.35157e-08
1.97519e-07
9.92006e-08
2.85898e-07
1.14845e-07
4.35188e-07
1.17889e-07
6.23895e-07
9.61379e-08
7.61748e-07
5.55798e-07
-8.84946e-08
4.59709e-07
-1.05717e-07
5.44776e-07
-9.90042e-08
3.40416e-07
-8.99776e-08
1.18516e-07
-7.67887e-08
-2.80835e-08
-5.6478e-08
-1.15374e-07
-4.55056e-08
-1.52449e-07
-3.66828e-08
-1.78598e-07
-3.24209e-08
-1.80147e-07
-2.74741e-08
-1.88424e-07
-2.16521e-08
-1.91435e-07
-1.63609e-08
-1.92599e-07
-1.08181e-08
-1.92044e-07
-6.17189e-09
-1.93673e-07
-3.25463e-10
-1.90815e-07
5.01338e-09
-1.97397e-07
1.2749e-08
-1.96407e-07
1.74165e-08
-1.93795e-07
2.25314e-08
-1.91503e-07
2.67212e-08
-1.90496e-07
3.10442e-08
-1.84269e-07
3.5261e-08
-1.85904e-07
4.35032e-08
-1.81515e-07
5.24763e-08
-1.60525e-07
6.92848e-08
-1.21014e-07
9.49308e-08
-2.76287e-08
1.03788e-07
1.20878e-07
1.08297e-07
3.41392e-07
8.95308e-08
5.45399e-07
4.59973e-07
-8.24134e-08
3.65636e-07
-9.63651e-08
3.32689e-07
-8.64115e-08
6.20412e-08
-7.13594e-08
-1.95632e-07
-6.47479e-08
-3.64193e-07
-4.37905e-08
-4.49542e-07
-4.66858e-08
-5.01113e-07
-3.08433e-08
-5.15169e-07
-3.67433e-08
-5.27601e-07
-2.99666e-08
-5.24821e-07
-2.30483e-08
-5.22282e-07
-1.62373e-08
-5.202e-07
-1.25035e-08
-5.19433e-07
-4.37184e-09
-5.16677e-07
-6.08699e-09
-5.17362e-07
6.06882e-09
-5.13192e-07
1.53327e-08
-5.14031e-07
2.02747e-08
-5.16652e-07
2.38527e-08
-5.20947e-07
3.11667e-08
-5.21573e-07
2.65679e-08
-5.26676e-07
3.06065e-08
-5.22742e-07
4.07365e-08
-5.12626e-07
4.24965e-08
-4.9547e-07
6.29128e-08
-4.42973e-07
7.80915e-08
-3.53405e-07
9.02483e-08
-1.91827e-07
9.82642e-08
6.36499e-08
8.31374e-08
3.33451e-07
3.65898e-07
-7.74632e-08
2.73947e-07
-8.9496e-08
1.26523e-07
-7.83293e-08
-2.08096e-07
-6.06574e-08
-5.00652e-07
-5.03854e-08
-6.93218e-07
-4.31052e-08
-7.96142e-07
-3.8408e-08
-8.48417e-07
-3.27382e-08
-8.68109e-07
-2.95298e-08
-8.77065e-07
-2.47342e-08
-8.76913e-07
-1.96881e-08
-8.74974e-07
-1.42328e-08
-8.73174e-07
-9.66056e-09
-8.72252e-07
-4.18098e-09
-8.7037e-07
-1.52725e-09
-8.69991e-07
4.85473e-09
-8.68002e-07
1.17092e-08
-8.68265e-07
1.46288e-08
-8.71748e-07
2.11392e-08
-8.74439e-07
2.42752e-08
-8.76578e-07
2.7362e-08
-8.78145e-07
3.14218e-08
-8.75409e-07
3.64174e-08
-8.65994e-07
4.23549e-08
-8.44482e-07
4.98366e-08
-7.91625e-07
6.13289e-08
-6.8769e-07
7.9615e-08
-4.97795e-07
9.02009e-08
-2.06835e-07
7.77793e-08
1.27071e-07
2.7408e-07
-7.37016e-08
1.8512e-07
-8.47985e-08
-7.28661e-08
-7.43391e-08
-4.68381e-07
-5.80716e-08
-7.9281e-07
-4.70708e-08
-1.00246e-06
-4.05506e-08
-1.11657e-06
-3.62094e-08
-1.17198e-06
-3.09004e-08
-1.19426e-06
-2.72044e-08
-1.20312e-06
-2.24434e-08
-1.20437e-06
-1.79168e-08
-1.20379e-06
-1.29536e-08
-1.20267e-06
-8.57327e-09
-1.2018e-06
-3.62891e-09
-1.20073e-06
-7.40252e-10
-1.20058e-06
4.52066e-09
-1.19971e-06
9.42328e-09
-1.20027e-06
1.28284e-08
-1.20175e-06
1.88258e-08
-1.20309e-06
2.25584e-08
-1.20485e-06
2.61899e-08
-1.20586e-06
3.04992e-08
-1.20296e-06
3.5212e-08
-1.19395e-06
4.04058e-08
-1.17084e-06
4.69661e-08
-1.11487e-06
5.81588e-08
-1.00039e-06
7.47084e-08
-7.91261e-07
8.49362e-08
-4.6761e-07
7.37725e-08
-7.25374e-08
1.85047e-07
-7.12033e-08
9.90593e-08
-8.16255e-08
-2.65355e-07
-7.22024e-08
-7.18594e-07
-5.74049e-08
-1.0724e-06
-4.64962e-08
-1.29615e-06
-3.97818e-08
-1.4179e-06
-3.5027e-08
-1.47596e-06
-2.94045e-08
-1.49859e-06
-2.5545e-08
-1.50848e-06
-2.08522e-08
-1.50988e-06
-1.64584e-08
-1.50989e-06
-1.21989e-08
-1.50937e-06
-7.63054e-09
-1.50804e-06
-3.33828e-09
-1.50773e-06
-3.74739e-10
-1.50817e-06
4.09551e-09
-1.50722e-06
8.29934e-09
-1.50793e-06
1.16658e-08
-1.50859e-06
1.68527e-08
-1.50903e-06
2.0958e-08
-1.51039e-06
2.50748e-08
-1.51156e-06
2.96691e-08
-1.50834e-06
3.43482e-08
-1.4997e-06
4.01387e-08
-1.47532e-06
4.65538e-08
-1.41745e-06
5.74163e-08
-1.29524e-06
7.21426e-08
-1.07131e-06
8.13753e-08
-7.1807e-07
7.09738e-08
-2.65103e-07
9.88647e-08
-7.02055e-08
1.38549e-08
-7.97297e-08
-4.5106e-07
-7.12891e-08
-9.58575e-07
-5.80111e-08
-1.33983e-06
-4.76053e-08
-1.57653e-06
-3.98118e-08
-1.70252e-06
-3.32268e-08
-1.76154e-06
-2.88176e-08
-1.78626e-06
-2.38114e-08
-1.79507e-06
-1.96649e-08
-1.79749e-06
-1.54935e-08
-1.79747e-06
-1.10437e-08
-1.79635e-06
-7.26469e-09
-1.79628e-06
-3.67695e-09
-1.7959e-06
1.85413e-10
-1.79581e-06
3.56203e-09
-1.79533e-06
7.78774e-09
-1.79537e-06
1.11589e-08
-1.79606e-06
1.52963e-08
-1.79626e-06
1.90858e-08
-1.79782e-06
2.41999e-08
-1.79769e-06
2.84031e-08
-1.79515e-06
3.37914e-08
-1.78591e-06
4.00512e-08
-1.76127e-06
4.8048e-08
-1.7025e-06
5.80508e-08
-1.57614e-06
7.09149e-08
-1.33876e-06
7.91346e-08
-9.58136e-07
6.95378e-08
-4.50785e-07
1.4111e-08
-6.80121e-08
-6.89202e-08
-7.7601e-08
-6.29953e-07
-7.11256e-08
-1.18839e-06
-5.92014e-08
-1.59341e-06
-4.80592e-08
-1.84168e-06
-3.91526e-08
-1.97084e-06
-3.25709e-08
-2.0311e-06
-2.70733e-08
-2.05512e-06
-2.27184e-08
-2.06508e-06
-1.84577e-08
-2.06679e-06
-1.40652e-08
-2.06691e-06
-1.10353e-08
-2.06689e-06
-6.69888e-09
-2.06605e-06
-3.34648e-09
-2.06573e-06
3.49564e-10
-2.06635e-06
3.68594e-09
-2.06547e-06
7.03157e-09
-2.0661e-06
1.07753e-08
-2.06648e-06
1.35563e-08
-2.06676e-06
1.83549e-08
-2.06723e-06
2.2533e-08
-2.06752e-06
2.76292e-08
-2.06422e-06
3.2593e-08
-2.05568e-06
3.94259e-08
-2.0304e-06
4.86633e-08
-1.97084e-06
5.95864e-08
-1.84142e-06
7.04355e-08
-1.59265e-06
7.69607e-08
-1.18805e-06
6.7586e-08
-6.29785e-07
-6.87259e-08
-6.44406e-08
-1.49049e-07
-7.43298e-08
-8.03229e-07
-7.00096e-08
-1.40937e-06
-5.98661e-08
-1.83366e-06
-4.76052e-08
-2.09243e-06
-3.80399e-08
-2.22477e-06
-2.99583e-08
-2.28525e-06
-2.66534e-08
-2.31267e-06
-2.05259e-08
-2.3199e-06
-1.74216e-08
-2.32396e-06
-1.37613e-08
-2.32327e-06
-9.88879e-09
-2.32235e-06
-6.43426e-09
-2.32286e-06
-4.00073e-09
-2.32255e-06
1.06372e-09
-2.32111e-06
3.03893e-09
-2.32271e-06
6.73007e-09
-2.32166e-06
1.0388e-08
-2.32229e-06
1.29224e-08
-2.32337e-06
1.68636e-08
-2.32399e-06
2.19817e-08
-2.32291e-06
2.56376e-08
-2.32145e-06
3.12052e-08
-2.31105e-06
3.77071e-08
-2.28615e-06
4.83584e-08
-2.22358e-06
6.07182e-08
-2.09125e-06
6.9065e-08
-1.83392e-06
7.36462e-08
-1.40933e-06
6.41473e-08
-8.03266e-07
-1.4901e-07
-6.00538e-08
-2.27145e-07
-6.91001e-08
-9.72176e-07
-6.55859e-08
-1.62433e-06
-6.10039e-08
-2.068e-06
-4.66424e-08
-2.32888e-06
-3.55254e-08
-2.46455e-06
-3.01597e-08
-2.53072e-06
-2.35748e-08
-2.55559e-06
-2.05887e-08
-2.56634e-06
-1.57673e-08
-2.56734e-06
-1.25497e-08
-2.56702e-06
-1.00152e-08
-2.56751e-06
-5.91974e-09
-2.56679e-06
-2.64845e-09
-2.56737e-06
-4.69249e-10
-2.56749e-06
3.95614e-09
-2.56539e-06
6.04864e-09
-2.56707e-06
9.10908e-09
-2.56703e-06
1.20921e-08
-2.56781e-06
1.65696e-08
-2.56756e-06
1.96976e-08
-2.56937e-06
2.52116e-08
-2.56456e-06
2.9262e-08
-2.55615e-06
3.70348e-08
-2.5284e-06
4.67302e-08
-2.46408e-06
6.09782e-08
-2.32666e-06
6.48508e-08
-2.068e-06
6.85925e-08
-1.62439e-06
5.98895e-08
-9.72322e-07
-2.27183e-07
-5.57198e-08
-3.03337e-07
-6.30013e-08
-1.13661e-06
-5.87899e-08
-1.83376e-06
-5.81901e-08
-2.29727e-06
-4.44681e-08
-2.55462e-06
-3.58591e-08