/*--------------------------------*- C++ -*----------------------------------*\
| =========                 |                                                 |
| \\      /  F ield         | OpenFOAM: The Open Source CFD Toolbox           |
|  \\    /   O peration     | Version:  2312                                  |
|   \\  /    A nd           | Website:  www.openfoam.com                      |
|    \\/     M anipulation  |                                                 |
\*---------------------------------------------------------------------------*/
FoamFile
{
    version     2.0;
    format      ascii;
    arch        "LSB;label=32;scalar=64";
    class       volScalarField;
    location    "0.01";
    object      Theta.particles;
}
// * * * * * * * * * * * * * * * * * * * * * * * * * * * * * * * * * * * * * //

dimensions      [0 2 -2 0 0 0 0];

internalField   nonuniform List<scalar> 
6000
(
0.000143729
0.000137559
0.000133075
0.000130208
0.000128732
0.00012781
0.000127193
0.000126772
0.000126476
0.000126266
0.000126118
0.000126014
0.000125944
0.0001259
0.00012588
0.00012588
0.0001259
0.000125944
0.000126014
0.000126118
0.000126266
0.000126475
0.000126771
0.000127192
0.000127809
0.000128731
0.000130208
0.000133075
0.000137559
0.00014373
0.000304676
0.000301547
0.000292663
0.000285271
0.000280656
0.000277857
0.000276185
0.000275145
0.000274458
0.000273985
0.000273649
0.000273413
0.000273251
0.000273149
0.000273101
0.000273102
0.00027315
0.000273252
0.000273413
0.000273649
0.000273985
0.000274458
0.000275144
0.000276184
0.000277856
0.000280655
0.000285271
0.000292663
0.000301547
0.000304678
0.000317106
0.000321015
0.000317914
0.000312746
0.000308065
0.000304564
0.000302189
0.000300617
0.000299564
0.00029884
0.000298328
0.00029797
0.000297724
0.00029757
0.000297497
0.000297498
0.000297572
0.000297727
0.000297971
0.000298328
0.00029884
0.000299564
0.000300616
0.000302188
0.000304565
0.000308066
0.000312747
0.000317915
0.000321017
0.000317108
0.000316857
0.000317858
0.000316802
0.00031431
0.000311215
0.000308354
0.000306081
0.000304395
0.000303182
0.000302308
0.000301677
0.000301229
0.000300916
0.000300721
0.000300627
0.000300629
0.000300722
0.00030092
0.000301227
0.000301674
0.000302309
0.000303183
0.000304395
0.000306083
0.000308361
0.00031122
0.000314314
0.000316806
0.00031786
0.00031686
0.000313472
0.000312482
0.000311394
0.000309889
0.000307848
0.000305716
0.000303834
0.000302299
0.000301121
0.000300227
0.00029956
0.000299078
0.000298733
0.000298522
0.000298415
0.000298417
0.000298518
0.000298739
0.000299074
0.000299552
0.000300229
0.000301124
0.000302304
0.000303842
0.000305733
0.000307857
0.0003099
0.000311404
0.000312485
0.000313475
0.000309039
0.000307335
0.000306171
0.000305
0.000303555
0.000301969
0.000300475
0.000299168
0.000298117
0.000297279
0.000296633
0.000296157
0.000295809
0.000295599
0.00029549
0.000295498
0.000295592
0.000295819
0.000296155
0.000296622
0.000297278
0.000298119
0.000299176
0.000300488
0.00030199
0.000303564
0.000305019
0.000306187
0.00030734
0.000309044
0.000304508
0.00030253
0.000301429
0.000300541
0.000299504
0.000298322
0.00029715
0.000296071
0.000295179
0.000294428
0.000293836
0.000293393
0.000293058
0.000292858
0.000292757
0.000292777
0.000292856
0.000293076
0.000293395
0.000293828
0.000294424
0.000295177
0.000296079
0.000297162
0.00029834
0.000299507
0.000300564
0.000301447
0.000302536
0.000304515
0.000300077
0.000298031
0.000297018
0.000296405
0.000295701
0.000294836
0.000293935
0.000293067
0.00029232
0.00029167
0.000291149
0.000290748
0.000290445
0.000290257
0.00029017
0.000290197
0.000290263
0.000290464
0.000290756
0.000291147
0.000291664
0.000292316
0.000293059
0.000293933
0.00029484
0.000295699
0.000296426
0.000297038
0.000298037
0.000300085
0.000295722
0.000293722
0.000292781
0.000292439
0.000292016
0.00029143
0.000290764
0.000290073
0.000289463
0.000288905
0.000288467
0.000288118
0.000287858
0.000287704
0.000287616
0.000287639
0.000287697
0.000287879
0.000288124
0.000288479
0.000288906
0.000289461
0.000290058
0.000290745
0.000291411
0.000292005
0.000292448
0.000292803
0.000293732
0.00029573
0.000291409
0.000289513
0.000288594
0.000288445
0.000288253
0.000287899
0.000287406
0.000286896
0.000286398
0.00028595
0.000285591
0.000285301
0.000285091
0.000284969
0.000284882
0.000284908
0.000284968
0.000285116
0.000285309
0.0002856
0.000285954
0.00028641
0.000286896
0.000287417
0.000287879
0.000288252
0.000288446
0.000288618
0.000289528
0.000291417
0.000287075
0.000285339
0.000284381
0.000284307
0.000284302
0.000284128
0.000283812
0.000283437
0.000283075
0.000282736
0.000282459
0.000282235
0.000282045
0.000281931
0.000281851
0.000281889
0.000281951
0.000282071
0.000282224
0.000282452
0.000282722
0.000283101
0.000283474
0.000283859
0.000284168
0.000284332
0.000284326
0.000284408
0.000285356
0.000287083
0.000282657
0.000281141
0.000280151
0.000279997
0.000280139
0.000280103
0.000279948
0.000279701
0.000279448
0.000279201
0.000278997
0.000278819
0.000278656
0.000278523
0.00027849
0.000278488
0.000278543
0.00027864
0.000278791
0.000278969
0.000279187
0.00027945
0.000279711
0.000279964
0.000280157
0.000280179
0.00028003
0.000280171
0.000281152
0.000282661
0.000278123
0.000276843
0.000275906
0.000275539
0.000275749
0.00027586
0.00027583
0.000275687
0.000275516
0.000275337
0.000275161
0.000275018
0.000274885
0.000274802
0.000274765
0.000274744
0.000274765
0.000274852
0.000274973
0.000275145
0.000275288
0.000275482
0.000275629
0.000275782
0.00027585
0.000275751
0.000275563
0.0002759
0.000276843
0.000278123
0.000273474
0.000272388
0.000271625
0.000271072
0.000271135
0.000271352
0.000271394
0.000271345
0.000271219
0.000271085
0.000270949
0.000270825
0.000270748
0.000270689
0.000270656
0.000270632
0.000270646
0.0002707
0.000270784
0.000270895
0.000271031
0.000271139
0.000271242
0.000271298
0.000271261
0.000271103
0.000271046
0.000271586
0.000272372
0.000273463
0.000268724
0.00026777
0.000267234
0.000266689
0.000266601
0.000266786
0.000266861
0.000266808
0.000266763
0.000266691
0.000266594
0.000266471
0.000266437
0.000266384
0.000266353
0.000266311
0.000266344
0.000266379
0.00026648
0.000266554
0.000266642
0.000266739
0.000266758
0.000266759
0.000266752
0.000266557
0.000266637
0.000267179
0.000267744
0.000268703
0.000263905
0.000263036
0.000262637
0.000262351
0.000262188
0.000262359
0.000262402
0.000262369
0.000262372
0.000262327
0.000262289
0.000262163
0.000262152
0.000262097
0.000262097
0.000262019
0.000262019
0.000262044
0.000262169
0.000262201
0.000262273
0.000262302
0.000262289
0.000262291
0.000262301
0.000262137
0.000262252
0.000262576
0.000263006
0.000263879
0.000259072
0.000258284
0.00025798
0.000257897
0.000257887
0.000258018
0.000258034
0.000257937
0.000257974
0.000257935
0.000257911
0.000257784
0.000257806
0.000257781
0.000257787
0.000257678
0.000257696
0.000257754
0.000257939
0.000258002
0.000258078
0.000258107
0.000258076
0.000258091
0.000258148
0.000257949
0.000257857
0.000257946
0.000258263
0.000259048
0.000254245
0.000253541
0.000253319
0.000253328
0.00025345
0.000253676
0.000253781
0.000253767
0.000253776
0.000253764
0.000253739
0.000253687
0.000253686
0.000253686
0.000253663
0.000253621
0.000253634
0.000253681
0.000253755
0.000253792
0.000253837
0.000253844
0.000253827
0.00025382
0.000253728
0.000253508
0.000253333
0.00025331
0.000253529
0.000254227
0.000249347
0.000248739
0.00024859
0.000248656
0.000248823
0.000249056
0.000249195
0.000249228
0.000249258
0.000249268
0.000249259
0.000249244
0.000249243
0.000249249
0.000249232
0.000249213
0.000249221
0.000249253
0.000249294
0.000249315
0.000249333
0.000249317
0.000249284
0.000249239
0.000249106
0.000248883
0.000248684
0.000248602
0.000248741
0.000249341
0.000244364
0.000243853
0.000243755
0.000243846
0.00024402
0.000244246
0.0002444
0.000244484
0.000244543
0.000244583
0.000244591
0.000244606
0.000244611
0.000244621
0.000244614
0.000244607
0.000244605
0.00024462
0.000244629
0.000244633
0.00024462
0.00024459
0.000244527
0.00024444
0.000244284
0.000244074
0.000243889
0.00024378
0.000243864
0.000244368
0.000239287
0.000238876
0.000238811
0.000238907
0.000239027
0.000239235
0.000239401
0.000239534
0.000239624
0.000239687
0.000239721
0.000239753
0.000239771
0.000239779
0.000239779
0.000239775
0.00023977
0.000239763
0.000239749
0.000239733
0.000239697
0.000239645
0.000239563
0.000239435
0.000239253
0.000239074
0.000238951
0.000238836
0.000238888
0.000239294
0.000234117
0.000233809
0.000233771
0.000233867
0.000233912
0.000233999
0.000234206
0.000234378
0.000234491
0.000234574
0.000234626
0.000234681
0.000234706
0.000234721
0.000234722
0.000234719
0.000234695
0.000234671
0.000234637
0.000234599
0.000234548
0.000234491
0.000234385
0.000234225
0.000234003
0.000233929
0.000233901
0.000233783
0.000233813
0.000234119
0.000228877
0.000228667
0.000228644
0.000228771
0.000228792
0.000228759
0.00022882
0.000229038
0.000229145
0.000229235
0.000229308
0.000229356
0.000229394
0.000229405
0.000229413
0.000229414
0.000229415
0.000229355
0.000229299
0.000229256
0.000229196
0.000229111
0.000229031
0.000228816
0.00022871
0.000228799
0.000228786
0.000228636
0.000228656
0.000228871
0.000223597
0.000223466
0.000223456
0.000223596
0.000223727
0.000223596
0.000223544
0.000223753
0.000223784
0.000223902
0.000223939
0.000224042
0.00022404
0.000224068
0.000224046
0.000224105
0.000224123
0.00022406
0.000223962
0.00022393
0.000223853
0.000223739
0.000223703
0.000223524
0.000223509
0.000223715
0.000223604
0.000223426
0.000223441
0.000223581
0.000218296
0.000218226
0.000218249
0.000218376
0.00021858
0.000218556
0.000218346
0.000218484
0.000218459
0.000218543
0.000218596
0.000218681
0.000218674
0.000218681
0.000218659
0.000218728
0.000218764
0.000218688
0.000218593
0.00021856
0.000218488
0.000218367
0.000218399
0.000218302
0.000218452
0.000218596
0.000218375
0.00021821
0.000218196
0.000218275
0.000212988
0.000212954
0.000213022
0.00021316
0.000213353
0.000213493
0.00021343
0.000213537
0.000213422
0.000213508
0.000213515
0.000213637
0.000213607
0.000213649
0.000213637
0.000213757
0.000213782
0.000213719
0.00021361
0.000213589
0.000213512
0.000213408
0.000213493
0.000213448
0.000213463
0.000213399
0.000213158
0.000212989
0.000212928
0.000212969
0.000207683
0.000207659
0.000207767
0.000207925
0.000208114
0.000208277
0.000208331
0.000208389
0.000208397
0.000208442
0.000208477
0.000208525
0.000208543
0.000208567
0.000208575
0.000208613
0.000208618
0.00020858
0.000208528
0.000208493
0.000208447
0.000208395
0.000208382
0.000208337
0.000208291
0.000208164
0.000207926
0.000207746
0.000207643
0.000207672
0.000202389
0.000202361
0.000202488
0.000202653
0.000202834
0.000202994
0.000203093
0.000203162
0.00020321
0.000203257
0.00020329
0.000203326
0.00020335
0.000203377
0.000203391
0.000203405
0.000203402
0.000203378
0.000203339
0.000203304
0.000203268
0.000203225
0.000203178
0.000203111
0.000203026
0.000202876
0.000202657
0.000202484
0.00020236
0.000202389
0.000197068
0.000197057
0.000197186
0.000197335
0.00019749
0.000197647
0.000197776
0.000197857
0.000197936
0.000197986
0.000198024
0.000198053
0.000198082
0.000198103
0.000198126
0.00019813
0.00019812
0.000198104
0.000198065
0.000198021
0.000197984
0.000197942
0.000197872
0.000197794
0.000197678
0.000197521
0.000197337
0.0001972
0.000197071
0.000197078
0.000191707
0.000191736
0.00019186
0.00019198
0.000192073
0.000192225
0.000192374
0.000192478
0.000192563
0.000192621
0.000192665
0.000192697
0.000192724
0.000192742
0.000192762
0.000192765
0.000192754
0.000192738
0.000192696
0.000192648
0.000192608
0.000192553
0.000192484
0.000192393
0.000192264
0.000192087
0.000191969
0.000191889
0.000191763
0.000191728
0.000186329
0.000186398
0.000186516
0.000186615
0.000186632
0.00018672
0.00018688
0.00018698
0.000187084
0.000187146
0.000187202
0.000187242
0.000187273
0.000187292
0.000187306
0.000187301
0.00018728
0.000187263
0.000187225
0.00018718
0.000187134
0.000187072
0.000186994
0.000186918
0.000186773
0.000186617
0.000186597
0.00018655
0.000186433
0.000186357
0.000180956
0.000181051
0.000181158
0.000181264
0.000181236
0.000181234
0.0001814
0.000181478
0.000181599
0.000181649
0.000181698
0.000181747
0.000181789
0.000181803
0.000181828
0.000181807
0.000181793
0.000181775
0.000181753
0.000181706
0.000181683
0.000181602
0.000181519
0.000181454
0.000181298
0.000181191
0.000181241
0.000181197
0.000181084
0.000180984
0.000175605
0.000175719
0.00017581
0.000175915
0.000175944
0.000175889
0.000176008
0.000176038
0.000176165
0.000176199
0.000176238
0.000176296
0.000176337
0.00017636
0.000176393
0.000176357
0.000176342
0.000176361
0.000176329
0.000176288
0.000176269
0.000176188
0.000176097
0.000176059
0.000175917
0.000175843
0.000175905
0.000175837
0.000175743
0.000175627
0.000170295
0.000170423
0.000170516
0.000170617
0.000170747
0.000170754
0.000170898
0.000170857
0.000171
0.00017097
0.000170978
0.000171008
0.000171036
0.000171033
0.000171082
0.000170999
0.000171
0.000171046
0.000171038
0.00017102
0.000171051
0.000170959
0.000170868
0.000170853
0.0001707
0.000170662
0.000170598
0.000170522
0.000170436
0.000170309
0.000165032
0.000165171
0.000165276
0.000165386
0.000165545
0.000165647
0.000165731
0.000165761
0.00016583
0.000165846
0.000165868
0.00016589
0.000165909
0.000165925
0.000165944
0.000165913
0.000165909
0.000165919
0.000165895
0.000165892
0.000165878
0.000165815
0.000165756
0.000165698
0.000165623
0.000165518
0.000165367
0.000165274
0.000165176
0.00016504
0.000159824
0.000159961
0.000160077
0.000160195
0.000160348
0.000160466
0.000160552
0.000160599
0.000160656
0.000160685
0.000160711
0.000160729
0.000160751
0.000160765
0.000160776
0.000160757
0.000160752
0.000160753
0.000160727
0.00016072
0.000160695
0.000160645
0.000160588
0.000160521
0.000160449
0.000160332
0.000160182
0.000160074
0.000159961
0.000159825
0.00015467
0.000154793
0.000154915
0.000155035
0.000155174
0.000155289
0.000155369
0.000155433
0.000155483
0.000155525
0.000155555
0.000155577
0.000155597
0.000155613
0.000155618
0.000155611
0.000155603
0.000155595
0.000155572
0.000155553
0.000155521
0.000155478
0.000155423
0.000155353
0.000155279
0.000155165
0.000155029
0.000154911
0.00015479
0.000154666
0.000149573
0.000149673
0.000149794
0.000149901
0.000150018
0.000150121
0.000150204
0.000150276
0.000150324
0.00015037
0.000150408
0.000150437
0.000150462
0.000150471
0.000150475
0.000150476
0.000150465
0.000150458
0.000150432
0.000150408
0.000150363
0.000150332
0.000150273
0.000150203
0.000150116
0.000150016
0.000149903
0.000149787
0.000149667
0.000149562
0.000144508
0.000144602
0.000144711
0.000144805
0.000144879
0.000144981
0.000145066
0.000145134
0.000145186
0.000145231
0.000145266
0.000145307
0.000145321
0.000145342
0.000145349
0.000145353
0.000145346
0.000145331
0.000145312
0.000145273
0.000145236
0.000145193
0.000145144
0.000145066
0.000144974
0.000144874
0.000144812
0.000144705
0.000144593
0.000144498
0.000139486
0.000139581
0.000139678
0.000139762
0.000139774
0.000139863
0.000139962
0.000140031
0.000140087
0.000140134
0.000140172
0.000140196
0.000140221
0.00014024
0.000140245
0.000140251
0.000140238
0.000140228
0.000140206
0.000140175
0.000140134
0.000140094
0.000140031
0.000139961
0.000139852
0.000139775
0.000139764
0.000139671
0.000139572
0.000139478
0.000134525
0.000134618
0.000134705
0.000134791
0.00013476
0.000134821
0.000134896
0.000134973
0.00013503
0.000135079
0.000135125
0.00013515
0.000135161
0.000135179
0.000135184
0.000135194
0.000135184
0.000135163
0.000135148
0.000135116
0.00013507
0.000135028
0.000134971
0.000134897
0.000134822
0.000134766
0.000134785
0.000134692
0.000134608
0.000134518
0.000129634
0.000129718
0.000129783
0.000129877
0.000129857
0.000129894
0.000129926
0.000130011
0.000130054
0.000130111
0.000130166
0.000130185
0.000130198
0.000130191
0.000130203
0.000130228
0.000130209
0.000130191
0.000130172
0.000130137
0.000130059
0.000130052
0.000129985
0.000129929
0.000129883
0.000129876
0.000129871
0.000129774
0.00012971
0.000129628
0.000124824
0.000124897
0.000124952
0.000125044
0.000125104
0.0001251
0.000125084
0.000125135
0.000125167
0.000125217
0.00012527
0.000125293
0.0001253
0.000125288
0.000125304
0.000125337
0.000125317
0.00012529
0.000125286
0.000125243
0.000125176
0.000125178
0.000125125
0.000125093
0.000125093
0.000125119
0.000125049
0.000124954
0.000124895
0.000124822
0.000120104
0.000120168
0.000120222
0.000120326
0.000120407
0.000120446
0.000120424
0.000120458
0.000120479
0.000120556
0.000120596
0.000120612
0.000120624
0.000120616
0.000120621
0.000120658
0.000120638
0.000120619
0.000120617
0.00012059
0.000120515
0.000120532
0.000120485
0.000120466
0.000120439
0.0001204
0.000120316
0.000120226
0.00012017
0.000120105
0.000115477
0.000115531
0.000115584
0.000115681
0.000115766
0.000115818
0.000115836
0.000115858
0.00011589
0.000115934
0.000115968
0.000115985
0.000115999
0.000116002
0.00011601
0.000116022
0.000116013
0.000116001
0.00011599
0.000115964
0.000115928
0.00011591
0.000115874
0.000115848
0.000115811
0.000115756
0.000115672
0.000115587
0.000115534
0.000115481
0.000110946
0.000110985
0.000111034
0.00011112
0.000111199
0.000111256
0.000111291
0.000111317
0.000111347
0.000111382
0.00011141
0.000111429
0.000111445
0.000111451
0.000111458
0.000111462
0.000111457
0.000111447
0.000111434
0.000111412
0.000111384
0.000111359
0.000111326
0.000111294
0.00011125
0.000111189
0.000111111
0.000111037
0.000110988
0.000110951
0.000106511
0.00010653
0.000106573
0.000106642
0.000106711
0.000106771
0.000106816
0.000106849
0.000106878
0.000106906
0.000106937
0.000106953
0.000106968
0.000106975
0.000106982
0.00010698
0.00010698
0.000106968
0.000106957
0.000106933
0.000106912
0.000106883
0.000106853
0.000106812
0.000106764
0.000106702
0.000106634
0.000106575
0.000106533
0.000106515
0.000102168
0.000102168
0.000102204
0.000102244
0.000102309
0.000102364
0.000102418
0.000102454
0.000102482
0.000102508
0.000102535
0.000102553
0.000102564
0.000102575
0.000102581
0.000102579
0.000102575
0.000102567
0.000102552
0.000102537
0.000102513
0.000102486
0.000102454
0.000102411
0.000102359
0.000102297
0.000102239
0.000102204
0.00010217
0.00010217
9.79132e-05
9.79027e-05
9.79247e-05
9.79334e-05
9.79902e-05
9.80511e-05
9.8102e-05
9.81391e-05
9.8167e-05
9.81855e-05
9.82077e-05
9.82252e-05
9.82401e-05
9.82505e-05
9.82577e-05
9.82539e-05
9.8252e-05
9.8242e-05
9.82328e-05
9.82134e-05
9.81963e-05
9.81628e-05
9.81365e-05
9.80922e-05
9.80451e-05
9.79841e-05
9.79341e-05
9.79241e-05
9.79035e-05
9.79145e-05
9.37537e-05
9.37309e-05
9.37357e-05
9.3722e-05
9.377e-05
9.38264e-05
9.38732e-05
9.39075e-05
9.39306e-05
9.39534e-05
9.39691e-05
9.39875e-05
9.40006e-05
9.40136e-05
9.40138e-05
9.40187e-05
9.40158e-05
9.40091e-05
9.39961e-05
9.39824e-05
9.39563e-05
9.39339e-05
9.38961e-05
9.38627e-05
9.38168e-05
9.37624e-05
9.37338e-05
9.37357e-05
9.37298e-05
9.37539e-05
8.96925e-05
8.96524e-05
8.96439e-05
8.96317e-05
8.96609e-05
8.96941e-05
8.97415e-05
8.97797e-05
8.9803e-05
8.98243e-05
8.98474e-05
8.98626e-05
8.98795e-05
8.98969e-05
8.9891e-05
8.98849e-05
8.98942e-05
8.98831e-05
8.98693e-05
8.9846e-05
8.98332e-05
8.98002e-05
8.97754e-05
8.97357e-05
8.96885e-05
8.96513e-05
8.965e-05
8.96463e-05
8.96508e-05
8.96919e-05
8.57353e-05
8.56778e-05
8.56608e-05
8.5674e-05
8.56805e-05
8.56817e-05
8.57329e-05
8.57796e-05
8.57986e-05
8.58158e-05
8.58379e-05
8.58545e-05
8.58704e-05
8.58897e-05
8.5879e-05
8.5873e-05
8.58775e-05
8.58717e-05
8.58482e-05
8.58303e-05
8.58176e-05
8.57905e-05
8.57685e-05
8.57304e-05
8.56848e-05
8.56615e-05
8.56838e-05
8.56635e-05
8.56773e-05
8.57347e-05
8.18897e-05
8.18191e-05
8.17993e-05
8.18315e-05
8.18486e-05
8.18241e-05
8.18707e-05
8.19305e-05
8.19531e-05
8.19708e-05
8.20002e-05
8.20132e-05
8.20342e-05
8.20465e-05
8.20396e-05
8.20221e-05
8.20351e-05
8.20195e-05
8.20044e-05
8.1977e-05
8.19791e-05
8.19415e-05
8.19279e-05
8.18841e-05
8.18441e-05
8.18303e-05
8.18291e-05
8.17993e-05
8.18184e-05
8.18891e-05
7.8159e-05
7.80771e-05
7.80565e-05
7.80908e-05
7.81247e-05
7.81308e-05
7.8174e-05
7.82109e-05
7.82369e-05
7.82571e-05
7.82786e-05
7.82934e-05
7.83065e-05
7.83133e-05
7.83127e-05
7.83069e-05
7.83043e-05
7.82953e-05
7.82825e-05
7.82649e-05
7.82532e-05
7.82328e-05
7.821e-05
7.81804e-05
7.81488e-05
7.81185e-05
7.80877e-05
7.8055e-05
7.80761e-05
7.81583e-05
7.4544e-05
7.44506e-05
7.44281e-05
7.44596e-05
7.44976e-05
7.45248e-05
7.45574e-05
7.45866e-05
7.46112e-05
7.46307e-05
7.46493e-05
7.46637e-05
7.46737e-05
7.46799e-05
7.4681e-05
7.46782e-05
7.46728e-05
7.46657e-05
7.4654e-05
7.46393e-05
7.46268e-05
7.46099e-05
7.45861e-05
7.45606e-05
7.45296e-05
7.44946e-05
7.44568e-05
7.44262e-05
7.44494e-05
7.45432e-05
7.10444e-05
7.0939e-05
7.09137e-05
7.09395e-05
7.09761e-05
7.10092e-05
7.10392e-05
7.1065e-05
7.10865e-05
7.1104e-05
7.11187e-05
7.11331e-05
7.1141e-05
7.11482e-05
7.11502e-05
7.11499e-05
7.11455e-05
7.11388e-05
7.11288e-05
7.11152e-05
7.11018e-05
7.10853e-05
7.10625e-05
7.10391e-05
7.10094e-05
7.09758e-05
7.09384e-05
7.0912e-05
7.09378e-05
7.10436e-05
6.76592e-05
6.75418e-05
6.75118e-05
6.75293e-05
6.75609e-05
6.75956e-05
6.76237e-05
6.76465e-05
6.76671e-05
6.76825e-05
6.76959e-05
6.77093e-05
6.77162e-05
6.77233e-05
6.7726e-05
6.77275e-05
6.77246e-05
6.77203e-05
6.77105e-05
6.76996e-05
6.7683e-05
6.76652e-05
6.7644e-05
6.7622e-05
6.75936e-05
6.75636e-05
6.753e-05
6.75108e-05
6.75409e-05
6.76585e-05
6.43875e-05
6.42566e-05
6.42205e-05
6.4226e-05
6.42559e-05
6.42887e-05
6.43144e-05
6.43355e-05
6.43552e-05
6.43721e-05
6.43873e-05
6.43964e-05
6.44068e-05
6.44096e-05
6.44146e-05
6.44143e-05
6.44153e-05
6.4409e-05
6.44031e-05
6.43902e-05
6.4376e-05
6.43542e-05
6.43372e-05
6.43116e-05
6.42866e-05
6.42573e-05
6.42278e-05
6.42208e-05
6.42567e-05
6.43874e-05
6.12311e-05
6.10866e-05
6.10418e-05
6.10353e-05
6.10612e-05
6.10934e-05
6.11177e-05
6.11394e-05
6.11579e-05
6.11767e-05
6.11914e-05
6.12039e-05
6.12112e-05
6.12171e-05
6.12187e-05
6.12208e-05
6.12165e-05
6.12139e-05
6.12041e-05
6.1194e-05
6.118e-05
6.11654e-05
6.11436e-05
6.11221e-05
6.10932e-05
6.10625e-05
6.10373e-05
6.10438e-05
6.10879e-05
6.12318e-05
5.81888e-05
5.80325e-05
5.798e-05
5.79647e-05
5.79851e-05
5.8014e-05
5.80392e-05
5.80589e-05
5.80776e-05
5.80945e-05
5.81101e-05
5.81224e-05
5.81311e-05
5.81358e-05
5.81395e-05
5.81396e-05
5.81386e-05
5.81317e-05
5.81255e-05
5.8113e-05
5.81039e-05
5.80884e-05
5.80691e-05
5.80447e-05
5.80174e-05
5.79878e-05
5.79655e-05
5.79813e-05
5.80338e-05
5.81896e-05
5.52606e-05
5.50919e-05
5.50345e-05
5.5019e-05
5.50263e-05
5.50554e-05
5.50799e-05
5.50991e-05
5.51188e-05
5.51345e-05
5.51442e-05
5.51555e-05
5.51649e-05
5.51714e-05
5.51753e-05
5.51773e-05
5.51744e-05
5.51686e-05
5.51616e-05
5.51575e-05
5.51424e-05
5.51267e-05
5.5106e-05
5.50837e-05
5.50585e-05
5.50364e-05
5.5017e-05
5.50336e-05
5.50923e-05
5.5261e-05
5.2448e-05
5.22684e-05
5.22071e-05
5.21976e-05
5.21925e-05
5.22182e-05
5.22412e-05
5.22557e-05
5.22762e-05
5.22903e-05
5.22992e-05
5.23046e-05
5.23164e-05
5.23199e-05
5.23277e-05
5.23259e-05
5.2326e-05
5.23199e-05
5.23173e-05
5.23098e-05
5.22949e-05
5.22736e-05
5.2258e-05
5.22364e-05
5.22212e-05
5.22057e-05
5.21968e-05
5.22054e-05
5.22681e-05
5.24479e-05
4.97514e-05
4.95617e-05
4.94963e-05
4.94874e-05
4.94875e-05
4.95136e-05
4.9532e-05
4.95451e-05
4.95622e-05
4.95765e-05
4.95805e-05
4.9587e-05
4.95933e-05
4.95978e-05
4.96026e-05
4.96024e-05
4.95979e-05
4.95944e-05
4.95885e-05
4.95858e-05
4.95677e-05
4.95543e-05
4.9536e-05
4.95233e-05
4.95107e-05
4.95014e-05
4.94893e-05
4.94961e-05
4.95615e-05
4.97513e-05
4.71708e-05
4.69716e-05
4.69032e-05
4.68948e-05
4.69062e-05
4.69246e-05
4.69421e-05
4.69575e-05
4.69715e-05
4.69835e-05
4.69921e-05
4.69993e-05
4.7005e-05
4.70087e-05
4.70117e-05
4.70114e-05
4.70072e-05
4.70018e-05
4.69954e-05
4.69909e-05
4.69798e-05
4.69675e-05
4.6953e-05
4.69386e-05
4.69236e-05
4.69085e-05
4.68961e-05
4.69034e-05
4.69715e-05
4.71707e-05
4.47057e-05
4.44975e-05
4.44264e-05
4.44178e-05
4.44302e-05
4.44472e-05
4.44637e-05
4.44786e-05
4.44917e-05
4.45029e-05
4.4512e-05
4.45193e-05
4.45248e-05
4.45286e-05
4.45305e-05
4.45303e-05
4.45276e-05
4.45232e-05
4.45173e-05
4.45104e-05
4.45008e-05
4.44895e-05
4.44763e-05
4.44619e-05
4.44463e-05
4.44304e-05
4.44181e-05
4.44264e-05
4.44974e-05
4.47056e-05
4.23552e-05
4.21383e-05
4.20646e-05
4.20551e-05
4.2067e-05
4.20832e-05
4.20989e-05
4.21131e-05
4.21255e-05
4.21362e-05
4.21451e-05
4.21523e-05
4.21576e-05
4.21612e-05
4.2163e-05
4.21628e-05
4.21606e-05
4.21566e-05
4.2151e-05
4.21439e-05
4.21349e-05
4.21242e-05
4.21118e-05
4.20978e-05
4.20825e-05
4.20667e-05
4.2055e-05
4.20644e-05
4.21382e-05
4.2355e-05
4.01182e-05
3.98928e-05
3.98163e-05
3.98058e-05
3.98168e-05
3.98323e-05
3.98473e-05
3.98609e-05
3.98728e-05
3.98831e-05
3.98917e-05
3.98986e-05
3.99038e-05
3.99072e-05
3.99089e-05
3.99088e-05
3.99068e-05
3.99031e-05
3.98977e-05
3.98908e-05
3.98821e-05
3.98718e-05
3.98599e-05
3.98465e-05
3.98317e-05
3.98164e-05
3.98056e-05
3.98162e-05
3.98927e-05
4.0118e-05
3.79931e-05
3.77593e-05
3.76802e-05
3.76684e-05
3.76786e-05
3.76933e-05
3.77077e-05
3.77208e-05
3.77323e-05
3.77423e-05
3.77506e-05
3.77573e-05
3.77624e-05
3.77657e-05
3.77673e-05
3.77672e-05
3.77653e-05
3.77618e-05
3.77566e-05
3.77498e-05
3.77414e-05
3.77315e-05
3.772e-05
3.77071e-05
3.76928e-05
3.76782e-05
3.76682e-05
3.768e-05
3.77592e-05
3.79929e-05
3.59781e-05
3.57363e-05
3.56545e-05
3.56416e-05
3.56509e-05
3.56649e-05
3.56788e-05
3.56914e-05
3.57025e-05
3.57122e-05
3.57203e-05
3.57269e-05
3.57318e-05
3.57351e-05
3.57367e-05
3.57366e-05
3.57348e-05
3.57313e-05
3.57262e-05
3.57196e-05
3.57114e-05
3.57018e-05
3.56907e-05
3.56782e-05
3.56645e-05
3.56506e-05
3.56414e-05
3.56544e-05
3.57362e-05
3.5978e-05
3.40716e-05
3.38219e-05
3.37377e-05
3.37237e-05
3.37321e-05
3.37455e-05
3.37588e-05
3.37709e-05
3.37818e-05
3.37912e-05
3.37991e-05
3.38056e-05
3.38105e-05
3.38137e-05
3.38153e-05
3.38152e-05
3.38134e-05
3.381e-05
3.3805e-05
3.37985e-05
3.37905e-05
3.37811e-05
3.37703e-05
3.37582e-05
3.3745e-05
3.37318e-05
3.37234e-05
3.37375e-05
3.38217e-05
3.40715e-05
3.22717e-05
3.20142e-05
3.19277e-05
3.19126e-05
3.19203e-05
3.1933e-05
3.19458e-05
3.19576e-05
3.19681e-05
3.19774e-05
3.19852e-05
3.19916e-05
3.19964e-05
3.19996e-05
3.20012e-05
3.20011e-05
3.19993e-05
3.1996e-05
3.19911e-05
3.19847e-05
3.19768e-05
3.19676e-05
3.19571e-05
3.19454e-05
3.19327e-05
3.192e-05
3.19124e-05
3.19276e-05
3.20141e-05
3.22716e-05
3.05762e-05
3.03112e-05
3.02225e-05
3.02064e-05
3.02134e-05
3.02255e-05
3.02379e-05
3.02493e-05
3.02597e-05
3.02688e-05
3.02765e-05
3.02828e-05
3.02875e-05
3.02907e-05
3.02923e-05
3.02923e-05
3.02906e-05
3.02873e-05
3.02824e-05
3.02761e-05
3.02684e-05
3.02594e-05
3.02491e-05
3.02376e-05
3.02253e-05
3.02132e-05
3.02062e-05
3.02223e-05
3.03111e-05
3.05761e-05
2.89829e-05
2.87105e-05
2.86197e-05
2.86029e-05
2.86093e-05
2.8621e-05
2.8633e-05
2.86443e-05
2.86545e-05
2.86635e-05
2.86712e-05
2.86774e-05
2.86822e-05
2.86854e-05
2.8687e-05
2.86869e-05
2.86853e-05
2.86821e-05
2.86774e-05
2.86711e-05
2.86634e-05
2.86544e-05
2.86442e-05
2.86329e-05
2.86208e-05
2.86091e-05
2.86027e-05
2.86196e-05
2.87104e-05
2.89828e-05
2.74893e-05
2.72097e-05
2.71171e-05
2.70996e-05
2.71058e-05
2.71174e-05
2.71294e-05
2.71407e-05
2.71509e-05
2.716e-05
2.71677e-05
2.7174e-05
2.71789e-05
2.71822e-05
2.71838e-05
2.71838e-05
2.71822e-05
2.7179e-05
2.71741e-05
2.71678e-05
2.716e-05
2.71509e-05
2.71406e-05
2.71293e-05
2.71173e-05
2.71057e-05
2.70995e-05
2.7117e-05
2.72096e-05
2.74892e-05
2.60927e-05
2.58062e-05
2.5712e-05
2.56942e-05
2.57004e-05
2.57121e-05
2.57242e-05
2.57358e-05
2.57462e-05
2.57556e-05
2.57636e-05
2.57701e-05
2.57752e-05
2.57786e-05
2.57803e-05
2.57803e-05
2.57786e-05
2.57752e-05
2.57702e-05
2.57636e-05
2.57556e-05
2.57462e-05
2.57358e-05
2.57243e-05
2.57121e-05
2.57004e-05
2.56942e-05
2.57119e-05
2.58062e-05
2.60926e-05
2.47904e-05
2.44973e-05
2.44015e-05
2.43834e-05
2.43897e-05
2.44015e-05
2.44139e-05
2.44258e-05
2.44366e-05
2.44463e-05
2.44547e-05
2.44616e-05
2.44669e-05
2.44704e-05
2.44723e-05
2.44722e-05
2.44705e-05
2.44669e-05
2.44616e-05
2.44547e-05
2.44463e-05
2.44366e-05
2.44257e-05
2.44139e-05
2.44015e-05
2.43897e-05
2.43834e-05
2.44015e-05
2.44973e-05
2.47904e-05
2.35794e-05
2.32795e-05
2.3182e-05
2.31637e-05
2.317e-05
2.31821e-05
2.3195e-05
2.32073e-05
2.32187e-05
2.3229e-05
2.32378e-05
2.32452e-05
2.32508e-05
2.32546e-05
2.32566e-05
2.32566e-05
2.32546e-05
2.32508e-05
2.32452e-05
2.32378e-05
2.32289e-05
2.32187e-05
2.32073e-05
2.3195e-05
2.31821e-05
2.317e-05
2.31637e-05
2.3182e-05
2.32795e-05
2.35794e-05
2.24559e-05
2.2149e-05
2.205e-05
2.20316e-05
2.20382e-05
2.20508e-05
2.20643e-05
2.20774e-05
2.20895e-05
2.21005e-05
2.21101e-05
2.2118e-05
2.2124e-05
2.21282e-05
2.21303e-05
2.21303e-05
2.21282e-05
2.21241e-05
2.2118e-05
2.21101e-05
2.21005e-05
2.20895e-05
2.20773e-05
2.20643e-05
2.20508e-05
2.20382e-05
2.20316e-05
2.205e-05
2.2149e-05
2.24559e-05
2.14159e-05
2.11024e-05
2.1002e-05
2.09837e-05
2.09908e-05
2.10042e-05
2.10187e-05
2.10328e-05
2.1046e-05
2.10579e-05
2.10683e-05
2.1077e-05
2.10836e-05
2.10881e-05
2.10904e-05
2.10904e-05
2.10881e-05
2.10836e-05
2.1077e-05
2.10683e-05
2.10579e-05
2.1046e-05
2.10328e-05
2.10187e-05
2.10042e-05
2.09908e-05
2.09837e-05
2.1002e-05
2.11024e-05
2.14159e-05
2.0456e-05
2.01362e-05
2.00345e-05
2.00165e-05
2.00246e-05
2.00391e-05
2.00549e-05
2.00704e-05
2.00849e-05
2.00981e-05
2.01095e-05
2.0119e-05
2.01263e-05
2.01312e-05
2.01337e-05
2.01337e-05
2.01312e-05
2.01263e-05
2.0119e-05
2.01095e-05
2.0098e-05
2.00849e-05
2.00704e-05
2.00549e-05
2.00391e-05
2.00245e-05
2.00165e-05
2.00345e-05
2.01361e-05
2.0456e-05
1.95724e-05
1.92465e-05
1.9144e-05
1.91267e-05
1.9136e-05
1.91521e-05
1.91696e-05
1.91868e-05
1.9203e-05
1.92176e-05
1.92303e-05
1.92409e-05
1.9249e-05
1.92544e-05
1.92572e-05
1.92572e-05
1.92544e-05
1.92489e-05
1.92409e-05
1.92303e-05
1.92176e-05
1.9203e-05
1.91868e-05
1.91696e-05
1.91521e-05
1.9136e-05
1.91267e-05
1.9144e-05
1.92465e-05
1.95723e-05
1.87611e-05
1.84297e-05
1.83268e-05
1.83106e-05
1.83215e-05
1.83397e-05
1.83593e-05
1.83787e-05
1.83968e-05
1.84133e-05
1.84276e-05
1.84393e-05
1.84483e-05
1.84544e-05
1.84575e-05
1.84575e-05