/*--------------------------------*- C++ -*----------------------------------*\
| =========                 |                                                 |
| \\      /  F ield         | OpenFOAM: The Open Source CFD Toolbox           |
|  \\    /   O peration     | Version:  2312                                  |
|   \\  /    A nd           | Website:  www.openfoam.com                      |
|    \\/     M anipulation  |                                                 |
\*---------------------------------------------------------------------------*/
FoamFile
{
    version     2.0;
    format      ascii;
    arch        "LSB;label=32;scalar=64";
    class       volVectorField;
    location    "0.01";
    object      U.particles;
}
// * * * * * * * * * * * * * * * * * * * * * * * * * * * * * * * * * * * * * //

dimensions      [0 1 -1 0 0 0 0];

internalField   nonuniform List<vector> 
6000
(
(0.0118772 0.0174678 0)
(0.0142173 0.0339492 0)
(0.0094656 0.0401587 0)
(0.00692049 0.0414311 0)
(0.00514478 0.0415548 0)
(0.00387769 0.0414404 0)
(0.00298843 0.0413155 0)
(0.00232716 0.0412188 0)
(0.0018176 0.0411489 0)
(0.00141186 0.0410987 0)
(0.00107789 0.041063 0)
(0.000794143 0.0410381 0)
(0.00054479 0.0410212 0)
(0.000318034 0.0410105 0)
(0.000103994 0.0410056 0)
(-0.000105959 0.0410057 0)
(-0.00032005 0.0410105 0)
(-0.000546812 0.041021 0)
(-0.00079587 0.0410375 0)
(-0.00107891 0.0410622 0)
(-0.00141214 0.0410981 0)
(-0.0018172 0.0411483 0)
(-0.00232605 0.0412182 0)
(-0.00298682 0.0413152 0)
(-0.00387619 0.0414409 0)
(-0.00514371 0.0415553 0)
(-0.00691984 0.0414314 0)
(-0.00946532 0.0401589 0)
(-0.0142171 0.0339493 0)
(-0.011877 0.0174679 0)
(0.017007 0.0448596 0)
(0.0194605 0.08374 0)
(0.0145055 0.102368 0)
(0.00946931 0.109799 0)
(0.00603869 0.112202 0)
(0.00403216 0.112676 0)
(0.00288102 0.112564 0)
(0.00216866 0.112334 0)
(0.00167873 0.11212 0)
(0.00130641 0.111954 0)
(0.00100349 0.111829 0)
(0.000744308 0.111742 0)
(0.000512933 0.111682 0)
(0.00030063 0.111645 0)
(9.84337e-05 0.111627 0)
(-0.000100971 0.111627 0)
(-0.000303604 0.111644 0)
(-0.00051656 0.111681 0)
(-0.000747889 0.111739 0)
(-0.00100521 0.111824 0)
(-0.00130638 0.111949 0)
(-0.00167735 0.112116 0)
(-0.00216554 0.11233 0)
(-0.00287671 0.112563 0)
(-0.00402877 0.112678 0)
(-0.00603716 0.112205 0)
(-0.00946908 0.109801 0)
(-0.0145059 0.102369 0)
(-0.0194607 0.0837405 0)
(-0.0170069 0.0448601 0)
(0.0110043 0.0400343 0)
(0.01399 0.0819991 0)
(0.011847 0.103932 0)
(0.00839915 0.114559 0)
(0.00548722 0.118824 0)
(0.00357544 0.120118 0)
(0.00244272 0.120271 0)
(0.00177514 0.120074 0)
(0.0013519 0.119823 0)
(0.0010496 0.119604 0)
(0.0008106 0.119435 0)
(0.000605908 0.119314 0)
(0.000420373 0.11923 0)
(0.000247744 0.119179 0)
(8.12657e-05 0.119154 0)
(-8.41458e-05 0.119155 0)
(-0.000251328 0.119178 0)
(-0.000425067 0.119229 0)
(-0.000611051 0.119308 0)
(-0.000813228 0.119426 0)
(-0.00104962 0.119595 0)
(-0.00134982 0.119814 0)
(-0.00177054 0.120066 0)
(-0.0024364 0.120267 0)
(-0.00357039 0.12012 0)
(-0.00548479 0.118828 0)
(-0.0083986 0.114562 0)
(-0.0118476 0.103934 0)
(-0.0139908 0.082 0)
(-0.0110041 0.0400352 0)
(0.00557659 0.0377335 0)
(0.00748754 0.0812962 0)
(0.006984 0.104727 0)
(0.00542737 0.116586 0)
(0.00384282 0.121808 0)
(0.00265293 0.123675 0)
(0.00187426 0.124102 0)
(0.00138647 0.124005 0)
(0.00106987 0.12378 0)
(0.000840157 0.123559 0)
(0.000656584 0.12338 0)
(0.000495609 0.123249 0)
(0.000346805 0.123158 0)
(0.000205773 0.123104 0)
(6.78087e-05 0.123077 0)
(-7.04706e-05 0.123078 0)
(-0.000209621 0.123103 0)
(-0.000352648 0.123158 0)
(-0.000502826 0.123242 0)
(-0.000659933 0.123367 0)
(-0.000840217 0.123546 0)
(-0.00106792 0.123766 0)
(-0.00138126 0.123993 0)
(-0.00186574 0.124095 0)
(-0.00264599 0.123676 0)
(-0.00383986 0.12181 0)
(-0.00542637 0.11659 0)
(-0.00698501 0.104729 0)
(-0.00748962 0.0812966 0)
(-0.00557659 0.037735 0)
(0.00217147 0.0363163 0)
(0.0030322 0.0800861 0)
(0.0031069 0.104224 0)
(0.00267052 0.116686 0)
(0.00208787 0.122427 0)
(0.00158336 0.124664 0)
(0.00121402 0.125299 0)
(0.000958539 0.125303 0)
(0.000777629 0.12512 0)
(0.000632035 0.12491 0)
(0.000507278 0.12473 0)
(0.000389862 0.124597 0)
(0.000277956 0.124502 0)
(0.000167345 0.124449 0)
(5.51386e-05 0.124423 0)
(-5.74081e-05 0.124426 0)
(-0.000169617 0.12445 0)
(-0.000283771 0.124508 0)
(-0.000400524 0.124595 0)
(-0.000512811 0.124718 0)
(-0.000633247 0.124893 0)
(-0.000776228 0.125099 0)
(-0.000952841 0.125286 0)
(-0.00120416 0.125286 0)
(-0.00157577 0.124657 0)
(-0.00208383 0.122422 0)
(-0.00266739 0.116689 0)
(-0.00310867 0.104226 0)
(-0.00303623 0.0800847 0)
(-0.00217239 0.036318 0)
(0.000359291 0.0350043 0)
(0.000499783 0.0779967 0)
(0.000678787 0.102044 0)
(0.000759178 0.114656 0)
(0.00073954 0.120667 0)
(0.000677223 0.123149 0)
(0.000609161 0.123945 0)
(0.000548137 0.124046 0)
(0.000488139 0.123912 0)
(0.000421141 0.123724 0)
(0.00035382 0.123553 0)
(0.000281038 0.12342 0)
(0.000206611 0.123323 0)
(0.000128383 0.123267 0)
(4.40775e-05 0.123243 0)
(-4.3448e-05 0.123253 0)
(-0.000128321 0.123274 0)
(-0.000210813 0.123332 0)
(-0.000295316 0.12342 0)
(-0.000364397 0.123539 0)
(-0.000425975 0.1237 0)
(-0.000487665 0.123886 0)
(-0.00054227 0.124021 0)
(-0.000600527 0.123925 0)
(-0.000670391 0.123134 0)
(-0.000731024 0.120659 0)
(-0.00075086 0.114661 0)
(-0.000679566 0.102046 0)
(-0.000503372 0.0779944 0)
(-0.000361117 0.0350055 0)
(-0.000588594 0.033749 0)
(-0.000966348 0.0754398 0)
(-0.000789812 0.098833 0)
(-0.000472633 0.111223 0)
(-0.000200494 0.117245 0)
(-1.12473e-05 0.119828 0)
(0.000112964 0.120736 0)
(0.000188488 0.120911 0)
(0.000221417 0.120831 0)
(0.000220601 0.12067 0)
(0.000202739 0.120522 0)
(0.000169316 0.120396 0)
(0.000129182 0.120301 0)
(8.44603e-05 0.12024 0)
(3.58641e-05 0.120213 0)
(-2.67729e-05 0.120223 0)
(-8.79543e-05 0.120244 0)
(-0.000136031 0.120302 0)
(-0.000185986 0.120387 0)
(-0.000217748 0.120505 0)
(-0.000227067 0.120646 0)
(-0.000221075 0.120805 0)
(-0.000183248 0.120887 0)
(-0.000103973 0.120715 0)
(2.10439e-05 0.119813 0)
(0.000213641 0.117237 0)
(0.000483636 0.111226 0)
(0.000792117 0.0988374 0)
(0.000966372 0.0754391 0)
(0.000588111 0.0337492 0)
(-0.0010763 0.0324801 0)
(-0.00182204 0.0725839 0)
(-0.00165751 0.0949678 0)
(-0.00122498 0.106846 0)
(-0.000811335 0.112664 0)
(-0.000487467 0.11521 0)
(-0.000260066 0.116149 0)
(-0.000102889 0.116374 0)
(-7.44486e-06 0.116329 0)
(4.19729e-05 0.1162 0)
(6.73635e-05 0.116072 0)
(6.50853e-05 0.115962 0)
(5.55121e-05 0.115879 0)
(3.92344e-05 0.115823 0)
(1.88941e-05 0.115793 0)
(-1.35148e-05 0.115791 0)
(-4.4156e-05 0.115816 0)
(-6.31328e-05 0.115872 0)
(-7.99795e-05 0.115946 0)
(-7.88882e-05 0.11606 0)
(-4.90883e-05 0.116184 0)
(7.28664e-06 0.116311 0)
(0.000108158 0.116354 0)
(0.000269018 0.116133 0)
(0.000497157 0.115195 0)
(0.000824189 0.112655 0)
(0.00123879 0.106845 0)
(0.00166345 0.0949741 0)
(0.00182445 0.0725854 0)
(0.00107774 0.0324803 0)
(-0.00133458 0.0311961 0)
(-0.00232673 0.0695635 0)
(-0.00218699 0.0907517 0)
(-0.00169074 0.101896 0)
(-0.00120829 0.107352 0)
(-0.000820739 0.109762 0)
(-0.00053611 0.110671 0)
(-0.000332751 0.110916 0)
(-0.000198223 0.110895 0)
(-0.0001113 0.110798 0)
(-5.46284e-05 0.110687 0)
(-2.40067e-05 0.110593 0)
(-5.85784e-06 0.110522 0)
(-1.27316e-06 0.110473 0)
(1.69009e-06 0.110442 0)
(-1.92475e-06 0.11044 0)
(-4.57486e-06 0.110466 0)
(-1.68932e-08 0.110513 0)
(1.43761e-05 0.11058 0)
(4.7411e-05 0.110681 0)
(0.000104405 0.110786 0)
(0.000196786 0.110886 0)
(0.000336212 0.110902 0)
(0.000539947 0.110659 0)
(0.000828315 0.109752 0)
(0.00122274 0.107349 0)
(0.00170404 0.101895 0)
(0.00219488 0.0907559 0)
(0.00232882 0.0695656 0)
(0.00133609 0.0311963 0)
(-0.00148345 0.029936 0)
(-0.00264213 0.0665102 0)
(-0.00254013 0.0864211 0)
(-0.00200152 0.0967228 0)
(-0.00147517 0.10174 0)
(-0.00105102 0.103958 0)
(-0.000737831 0.104807 0)
(-0.000507863 0.105055 0)
(-0.000345515 0.105053 0)
(-0.000234451 0.104977 0)
(-0.000154688 0.104894 0)
(-0.000102718 0.104813 0)
(-6.46988e-05 0.104748 0)
(-3.88417e-05 0.104699 0)
(-1.1226e-05 0.104674 0)
(1.36918e-05 0.104671 0)
(3.12193e-05 0.104698 0)
(5.68776e-05 0.104739 0)
(9.47405e-05 0.104807 0)
(0.000150095 0.104887 0)
(0.000233145 0.104978 0)
(0.000349052 0.105052 0)
(0.000511094 0.105049 0)
(0.000742226 0.104804 0)
(0.00105602 0.10396 0)
(0.00148221 0.101746 0)
(0.00200969 0.0967261 0)
(0.00254656 0.0864253 0)
(0.00264251 0.0665117 0)
(0.00148388 0.0299361 0)
(-0.00155698 0.0286895 0)
(-0.00283185 0.0634765 0)
(-0.00279799 0.0821321 0)
(-0.00222361 0.0915539 0)
(-0.00165961 0.0961052 0)
(-0.00120975 0.0981151 0)
(-0.000875418 0.0988927 0)
(-0.000636251 0.0991277 0)
(-0.000462616 0.099143 0)
(-0.000328122 0.0990901 0)
(-0.000231996 0.0990173 0)
(-0.000170605 0.0989498 0)
(-0.000120135 0.0988867 0)
(-6.8784e-05 0.0988475 0)
(-1.93568e-05 0.0988239 0)
(2.14494e-05 0.0988206 0)
(6.25025e-05 0.0988459 0)
(0.000110744 0.0988869 0)
(0.000166074 0.0989487 0)
(0.00023567 0.0990196 0)
(0.000332804 0.0990871 0)
(0.000459575 0.0991492 0)
(0.000635318 0.0991291 0)
(0.00088425 0.098893 0)
(0.00121775 0.0981188 0)
(0.00166182 0.096113 0)
(0.00222649 0.0915605 0)
(0.00279765 0.0821321 0)
(0.00282916 0.0634747 0)
(0.00155566 0.0286886 0)
(-0.00157481 0.0274557 0)
(-0.00290122 0.0604552 0)
(-0.00297995 0.0779518 0)
(-0.00238809 0.0865167 0)
(-0.00177593 0.0905929 0)
(-0.00130676 0.0923868 0)
(-0.000969163 0.0930883 0)
(-0.000725567 0.0933052 0)
(-0.000541779 0.093333 0)
(-0.000406648 0.0932928 0)
(-0.000303924 0.0932278 0)
(-0.000226349 0.0931691 0)
(-0.000156749 0.0931239 0)
(-9.02442e-05 0.0930805 0)
(-3.3752e-05 0.0930703 0)
(2.66104e-05 0.0930589 0)
(8.99664e-05 0.0930776 0)
(0.000155209 0.093117 0)
(0.000229687 0.093174 0)
(0.000303392 0.0932398 0)
(0.000407073 0.0933082 0)
(0.000543389 0.0933439 0)
(0.000720054 0.0933191 0)
(0.000975736 0.0930936 0)
(0.00131573 0.0923892 0)
(0.00177906 0.0905981 0)
(0.00238635 0.0865184 0)
(0.00297196 0.0779421 0)
(0.00289772 0.0604514 0)
(0.00157259 0.0274543 0)
(-0.00155951 0.0262432 0)
(-0.00286026 0.0574262 0)
(-0.00306191 0.07385 0)
(-0.00250738 0.0816626 0)
(-0.00184923 0.085267 0)
(-0.001366 0.0868433 0)
(-0.00102391 0.0874562 0)
(-0.000781749 0.087647 0)
(-0.000605321 0.087679 0)
(-0.000465782 0.0876568 0)
(-0.000355732 0.0876053 0)
(-0.000262306 0.0875557 0)
(-0.000186102 0.0875228 0)
(-0.000108755 0.0874928 0)
(-3.61774e-05 0.0874749 0)
(2.78984e-05 0.08747 0)
(0.000110216 0.0874808 0)
(0.000189966 0.0875182 0)
(0.000273311 0.0875744 0)
(0.000367183 0.087636 0)
(0.000466302 0.0877012 0)
(0.000598566 0.0877286 0)
(0.000778685 0.0876906 0)
(0.00101898 0.0874839 0)
(0.00136751 0.0868636 0)
(0.00185244 0.085282 0)
(0.002503 0.081681 0)
(0.00305741 0.0738477 0)
(0.00286099 0.0574282 0)
(0.00155819 0.0262426 0)
(-0.00151635 0.0250363 0)
(-0.00274188 0.0543834 0)
(-0.00300915 0.0697281 0)
(-0.0025648 0.0770089 0)
(-0.00188502 0.0801477 0)
(-0.0013903 0.0815194 0)
(-0.00105992 0.0820374 0)
(-0.000819143 0.0822043 0)
(-0.000630337 0.082238 0)
(-0.00049854 0.0822263 0)
(-0.000392704 0.0822024 0)
(-0.000292193 0.0821584 0)
(-0.000201202 0.0821325 0)
(-0.000124922 0.0821135 0)
(-4.65254e-05 0.0821004 0)
(4.02674e-05 0.08209 0)
(0.000126629 0.0821038 0)
(0.000218933 0.0821412 0)
(0.000309646 0.0822112 0)
(0.000403957 0.0822686 0)
(0.000513384 0.082325 0)
(0.000638331 0.0823419 0)
(0.000804192 0.0822969 0)
(0.00104765 0.0821162 0)
(0.00138639 0.0815885 0)
(0.00188853 0.0802026 0)
(0.00255651 0.0770334 0)
(0.00299743 0.0697367 0)
(0.00274016 0.0543873 0)
(0.00151549 0.0250358 0)
(-0.00146073 0.0238332 0)
(-0.00258596 0.0513281 0)
(-0.00280167 0.0655121 0)
(-0.00250164 0.0723597 0)
(-0.00191256 0.0752751 0)
(-0.00139653 0.0764655 0)
(-0.00106406 0.0768901 0)
(-0.000825669 0.0770005 0)
(-0.000653541 0.0770562 0)
(-0.00051082 0.0770576 0)
(-0.000405474 0.0770444 0)
(-0.000311126 0.0769864 0)
(-0.000220717 0.0770001 0)
(-0.000131124 0.0769926 0)
(-4.7209e-05 0.0769944 0)
(3.56377e-05 0.0769438 0)
(0.000141699 0.0769757 0)
(0.000251042 0.0770289 0)
(0.000344147 0.0771598 0)
(0.000436796 0.077231 0)
(0.000536374 0.0772851 0)
(0.000648954 0.0772923 0)
(0.000816641 0.0772318 0)
(0.00105439 0.0770816 0)
(0.0013859 0.0766816 0)
(0.00189338 0.0754008 0)
(0.00247625 0.0723783 0)
(0.00279004 0.0655214 0)
(0.00258038 0.0513285 0)
(0.00145852 0.0238302 0)
(-0.00141601 0.0226437 0)
(-0.00242897 0.0482613 0)
(-0.00254555 0.0612119 0)
(-0.00224293 0.0673914 0)
(-0.00178965 0.0701816 0)
(-0.00136384 0.071334 0)
(-0.00107775 0.0717711 0)
(-0.000830089 0.0719004 0)
(-0.000635249 0.0719608 0)
(-0.000519019 0.0719769 0)
(-0.000434144 0.0719726 0)
(-0.000318564 0.0719618 0)
(-0.000200236 0.0719717 0)
(-0.000129449 0.0719823 0)
(-7.50296e-05 0.0719634 0)
(2.64429e-05 0.0719434 0)
(0.000168803 0.0719396 0)
(0.000315137 0.0719485 0)
(0.000415089 0.0719674 0)
(0.000470223 0.0719765 0)
(0.000554596 0.0719742 0)
(0.000641271 0.0719697 0)
(0.000799454 0.0719244 0)
(0.00106935 0.0717975 0)
(0.00133367 0.0713712 0)
(0.00168702 0.0702048 0)
(0.00217291 0.0673914 0)
(0.00252383 0.0612096 0)
(0.00241908 0.0482554 0)
(0.00141036 0.0226361 0)
(-0.00136582 0.0214586 0)
(-0.00230188 0.0452128 0)
(-0.00235843 0.0569167 0)
(-0.00200093 0.0622718 0)
(-0.00154233 0.0646003 0)
(-0.0011789 0.0655587 0)
(-0.000964431 0.065944 0)
(-0.000782437 0.0660985 0)
(-0.000627089 0.0661277 0)
(-0.000511342 0.0661371 0)
(-0.000417643 0.0661547 0)
(-0.000312088 0.066199 0)
(-0.000208306 0.0661822 0)
(-0.000136526 0.0661839 0)
(-7.10084e-05 0.0661675 0)
(2.09819e-05 0.0661873 0)
(0.000134813 0.0661445 0)
(0.000245594 0.0660991 0)
(0.00034011 0.0659967 0)
(0.000427008 0.0659364 0)
(0.000525518 0.0659068 0)
(0.000634819 0.0658807 0)
(0.000784496 0.0658758 0)
(0.000965531 0.0657782 0)
(0.00118074 0.0653784 0)
(0.00152136 0.0645099 0)
(0.00197453 0.062248 0)
(0.00234623 0.0569068 0)
(0.00229377 0.0452031 0)
(0.00136112 0.0214493 0)
(-0.00128705 0.0202309 0)
(-0.00218274 0.0421953 0)
(-0.00223022 0.0527233 0)
(-0.00189389 0.0573245 0)
(-0.00147252 0.0591301 0)
(-0.00113589 0.0597341 0)
(-0.000927735 0.059923 0)
(-0.000761151 0.0599823 0)
(-0.00061892 0.0599899 0)
(-0.000504851 0.0599969 0)
(-0.000403762 0.0600056 0)
(-0.000306404 0.06003 0)
(-0.000212608 0.0600278 0)
(-0.000137216 0.0600299 0)
(-6.74446e-05 0.0600274 0)
(1.62884e-05 0.0600323 0)
(0.000115841 0.0600115 0)
(0.00021975 0.0599846 0)
(0.000312854 0.0599409 0)
(0.000409584 0.0599146 0)
(0.000514578 0.0598992 0)
(0.000628137 0.0598957 0)
(0.000774291 0.0598949 0)
(0.000939607 0.0598544 0)
(0.00114985 0.0596749 0)
(0.0014729 0.0590854 0)
(0.00188492 0.0573057 0)
(0.00222575 0.0527155 0)
(0.00217966 0.0421893 0)
(0.00128714 0.0202281 0)
(-0.00122502 0.0190244 0)
(-0.00208639 0.0392633 0)
(-0.00214142 0.0486807 0)
(-0.00184082 0.0526007 0)
(-0.001459 0.0540056 0)
(-0.00113897 0.0543889 0)
(-0.00092277 0.054446 0)
(-0.000754 0.0544443 0)
(-0.000614441 0.0544297 0)
(-0.000498952 0.0544329 0)
(-0.000395305 0.0544353 0)
(-0.000300278 0.0544501 0)
(-0.000211319 0.054453 0)
(-0.00013484 0.0544555 0)
(-6.31182e-05 0.0544572 0)
(1.54022e-05 0.0544594 0)
(0.000106621 0.0544507 0)
(0.000203485 0.0544344 0)
(0.000295863 0.0544071 0)
(0.000397077 0.0543972 0)
(0.000506153 0.0543798 0)
(0.000623193 0.0543823 0)
(0.000768417 0.0543932 0)
(0.000937229 0.054396 0)
(0.00115644 0.0543403 0)
(0.00146965 0.0539682 0)
(0.00184294 0.0525846 0)
(0.00214223 0.0486735 0)
(0.00208575 0.0392591 0)
(0.00122519 0.0190227 0)
(-0.00117665 0.0178483 0)
(-0.00200584 0.03643 0)
(-0.00207734 0.0448027 0)
(-0.0018132 0.0480992 0)
(-0.00146483 0.0491363 0)
(-0.0011622 0.049334 0)
(-0.000934719 0.0493036 0)
(-0.000754776 0.049266 0)
(-0.000610028 0.049236 0)
(-0.000492042 0.0492367 0)
(-0.000388734 0.0492352 0)
(-0.000294565 0.0492517 0)
(-0.000210361 0.0492557 0)
(-0.000132155 0.0492598 0)
(-5.75674e-05 0.0492633 0)
(2.02056e-05 0.0492688 0)
(0.000105655 0.049266 0)
(0.000194522 0.0492559 0)
(0.000288169 0.0492344 0)
(0.000386062 0.049229 0)
(0.00049298 0.0492098 0)
(0.000615406 0.0492197 0)
(0.000759522 0.0492369 0)
(0.000943935 0.0492696 0)
(0.00118098 0.0492913 0)
(0.00148592 0.0491019 0)
(0.00182493 0.048089 0)
(0.00208207 0.0447985 0)
(0.00200758 0.0364285 0)
(0.00117707 0.017848 0)
(-0.00112932 0.0166953 0)
(-0.00192102 0.0336798 0)
(-0.00201009 0.0410733 0)
(-0.00179628 0.0438323 0)
(-0.00148609 0.0445429 0)
(-0.0011816 0.0445744 0)
(-0.000935171 0.0444814 0)
(-0.000747869 0.0444247 0)
(-0.000602121 0.0443916 0)
(-0.000483135 0.0443832 0)
(-0.00037779 0.0443896 0)
(-0.000284006 0.0443978 0)
(-0.000205153 0.0444097 0)
(-0.000126271 0.0444137 0)
(-4.92606e-05 0.0444232 0)
(2.60156e-05 0.0444323 0)
(0.000104224 0.0444379 0)
(0.000184636 0.044426 0)
(0.000275577 0.0444132 0)
(0.000372742 0.0443999 0)
(0.000483101 0.0443894 0)
(0.000606232 0.0443931 0)
(0.000746301 0.0444259 0)
(0.000938148 0.044476 0)
(0.00119433 0.0445558 0)
(0.00151303 0.0445391 0)
(0.00181584 0.0438363 0)
(0.00201619 0.0410763 0)
(0.00192331 0.0336817 0)
(0.00113007 0.0166967 0)
(-0.00107542 0.0155551 0)
(-0.00181241 0.0309711 0)
(-0.001901 0.0374309 0)
(-0.00174199 0.0397263 0)
(-0.0014946 0.0402647 0)
(-0.00119532 0.0401205 0)
(-0.00092941 0.039973 0)
(-0.000732223 0.0398857 0)
(-0.00059022 0.0398463 0)
(-0.000469916 0.0398341 0)
(-0.000368788 0.0398394 0)
(-0.000276761 0.0398499 0)
(-0.000195829 0.0398624 0)
(-0.000118091 0.0398748 0)
(-3.8843e-05 0.0398842 0)
(3.57857e-05 0.0399001 0)
(0.000105199 0.039913 0)
(0.000179372 0.0399065 0)
(0.000266591 0.0398945 0)
(0.000359868 0.0398712 0)
(0.000464585 0.0398666 0)
(0.000591413 0.0398639 0)
(0.000731457 0.039906 0)
(0.00092497 0.0399931 0)
(0.00121254 0.0401382 0)
(0.00152389 0.040287 0)
(0.00175311 0.0397507 0)
(0.00190225 0.0374414 0)
(0.00181294 0.0309762 0)
(0.00107597 0.0155576 0)
(-0.00101818 0.0144233 0)
(-0.00168658 0.0282778 0)
(-0.00174912 0.0338141 0)
(-0.0015844 0.0356427 0)
(-0.00144617 0.0361103 0)
(-0.00121074 0.0359748 0)
(-0.000915175 0.0356885 0)
(-0.000718303 0.0355797 0)
(-0.000573785 0.035513 0)
(-0.000457953 0.0354952 0)
(-0.000354752 0.0355024 0)
(-0.000262803 0.0355173 0)
(-0.000184453 0.0355264 0)
(-0.000107886 0.0355429 0)
(-3.02908e-05 0.035566 0)
(4.66724e-05 0.0356059 0)
(0.000110718 0.0356432 0)
(0.000173356 0.035622 0)
(0.000250072 0.03559 0)
(0.000343055 0.0355655 0)
(0.000447869 0.0355541 0)
(0.000570697 0.0355493 0)
(0.000718538 0.0356181 0)
(0.000916395 0.0357299 0)
(0.00122379 0.0360045 0)
(0.00147113 0.0361676 0)
(0.00158969 0.0356857 0)
(0.00173972 0.0338298 0)
(0.00168365 0.0282847 0)
(0.00101799 0.0144263 0)
(-0.000963323 0.0133027 0)
(-0.0015666 0.0256089 0)
(-0.00159634 0.0302154 0)
(-0.00137703 0.031523 0)
(-0.001241 0.0317739 0)
(-0.00117689 0.0318113 0)
(-0.000945272 0.0316384 0)
(-0.000701959 0.0315951 0)
(-0.000568791 0.031449 0)
(-0.000441077 0.031451 0)
(-0.000339029 0.0314406 0)
(-0.00025538 0.0315002 0)
(-0.00017651 0.0314856 0)
(-9.21938e-05 0.0315162 0)
(-2.22691e-06 0.031547 0)
(7.88619e-05 0.0316492 0)
(0.000114217 0.0316902 0)
(0.000150368 0.0316603 0)
(0.000231233 0.0315961 0)
(0.000325882 0.0315922 0)
(0.000421524 0.0315606 0)
(0.00055693 0.0315402 0)
(0.000706065 0.0316619 0)
(0.000937443 0.0317379 0)
(0.00120175 0.0318718 0)
(0.0012712 0.0318549 0)
(0.00135563 0.0315575 0)
(0.00157395 0.0302274 0)
(0.00155962 0.0256139 0)
(0.000962271 0.013305 0)
(-0.000917668 0.0122032 0)
(-0.00147045 0.0229859 0)
(-0.00148044 0.0266704 0)
(-0.00123774 0.0274346 0)
(-0.00101065 0.0273285 0)
(-0.000914657 0.0272414 0)
(-0.0007679 0.0272626 0)
(-0.000676002 0.0272299 0)
(-0.000584665 0.027208 0)
(-0.00042336 0.0272201 0)
(-0.000306041 0.0272241 0)
(-0.000228088 0.0272468 0)
(-0.000173319 0.0272484 0)
(-7.00133e-05 0.0272603 0)
(5.16804e-05 0.0272571 0)
(0.000134822 0.0272695 0)
(0.000114017 0.027252 0)
(0.000111202 0.0272565 0)
(0.000204951 0.0272467 0)
(0.000309152 0.0272428 0)
(0.000379195 0.0272328 0)
(0.000558465 0.0272369 0)
(0.000685575 0.0272545 0)
(0.000764689 0.0273097 0)
(0.000906392 0.0273078 0)
(0.00100883 0.0273604 0)
(0.00119769 0.0274399 0)
(0.00145557 0.0266715 0)
(0.00146296 0.0229864 0)
(0.000916616 0.0122042 0)
(-0.00089048 0.0111374 0)
(-0.00140483 0.0204304 0)
(-0.0014038 0.0232193 0)
(-0.00116761 0.0234679 0)
(-0.000927693 0.0230405 0)
(-0.000776216 0.0226633 0)
(-0.000657501 0.0225243 0)
(-0.000566444 0.0224167 0)
(-0.000485403 0.0225041 0)
(-0.000389462 0.0225009 0)
(-0.000306541 0.022533 0)
(-0.00023394 0.022494 0)
(-0.000166113 0.022523 0)
(-9.17911e-05 0.0225075 0)
(-7.87759e-06 0.0224892 0)
(6.59971e-05 0.0224068 0)
(0.000102761 0.0223689 0)
(0.000144943 0.0223808 0)
(0.000218823 0.0224178 0)
(0.000304327 0.022403 0)
(0.000383843 0.0224178 0)
(0.000488836 0.0224426 0)
(0.000583681 0.0223915 0)
(0.000673148 0.0224839 0)
(0.000786676 0.0226702 0)
(0.000916022 0.0230268 0)
(0.00113246 0.0234526 0)
(0.00138428 0.0232113 0)
(0.00139973 0.0204268 0)
(0.000890125 0.0111372 0)
(-0.000877987 0.0100955 0)
(-0.00136806 0.0179504 0)
(-0.00135563 0.0198778 0)
(-0.00113466 0.0196476 0)
(-0.000898688 0.0189566 0)
(-0.000730612 0.0184136 0)
(-0.000612015 0.0181287 0)
(-0.000520788 0.01799 0)
(-0.000443066 0.0179815 0)
(-0.000365168 0.0179804 0)
(-0.00029405 0.0179926 0)
(-0.000227216 0.0179916 0)
(-0.000161647 0.0180028 0)
(-9.56012e-05 0.0180005 0)
(-2.40585e-05 0.0179967 0)
(4.39192e-05 0.0179614 0)
(9.40558e-05 0.0179386 0)
(0.000147239 0.0179396 0)
(0.000216345 0.0179482 0)
(0.000294181 0.0179431 0)
(0.000369086 0.0179436 0)
(0.000454077 0.0179552 0)
(0.000538849 0.0179726 0)
(0.000627839 0.0180981 0)
(0.000739798 0.0183876 0)
(0.000885295 0.0189236 0)
(0.00110725 0.0196188 0)
(0.00134431 0.0198633 0)
(0.00136658 0.0179438 0)
(0.00087827 0.0100937 0)
(-0.000854511 0.00905135 0)
(-0.00133269 0.0155418 0)
(-0.00132114 0.0166564 0)
(-0.0011202 0.0159727 0)
(-0.000895536 0.0150513 0)
(-0.000718001 0.0143804 0)
(-0.000593108 0.0140297 0)
(-0.000491419 0.0138663 0)
(-0.000409978 0.0138305 0)
(-0.000344916 0.0138244 0)
(-0.000281204 0.0138317 0)
(-0.000218373 0.0138354 0)
(-0.000156236 0.0138452 0)
(-9.54142e-05 0.0138458 0)
(-3.62662e-05 0.0138474 0)
(2.35909e-05 0.0138247 0)
(8.66353e-05 0.0138102 0)
(0.000150762 0.0138109 0)
(0.000215021 0.0138155 0)
(0.000283979 0.01381 0)
(0.000353175 0.0138098 0)
(0.000422413 0.0138217 0)
(0.000500693 0.0138575 0)
(0.000599539 0.0140047 0)
(0.000725332 0.0143494 0)
(0.00088523 0.015001 0)
(0.00110449 0.015933 0)
(0.00132062 0.0166379 0)
(0.00133498 0.0155334 0)
(0.000855035 0.00904824 0)
(-0.000818887 0.00802437 0)
(-0.00128402 0.0132109 0)
(-0.00129367 0.0135651 0)
(-0.00111737 0.0124693 0)
(-0.000904791 0.0113275 0)
(-0.000716532 0.0105689 0)
(-0.000575878 0.0101796 0)
(-0.000470374 0.0100014 0)
(-0.000387996 0.00994794 0)
(-0.000326924 0.00993487 0)
(-0.000268655 0.00993981 0)
(-0.000209405 0.00994524 0)
(-0.000150866 0.00995303 0)
(-9.20063e-05 0.00995551 0)
(-3.69823e-05 0.0099598 0)
(1.84262e-05 0.009956 0)
(8.41803e-05 0.00995222 0)
(0.000148903 0.00995463 0)
(0.000208302 0.00995268 0)
(0.000272153 0.00994512 0)
(0.000336861 0.00994189 0)
(0.000398256 0.00995475 0)
(0.000473185 0.0100068 0)
(0.000572516 0.0101782 0)
(0.000706122 0.0105517 0)
(0.000888428 0.0112823 0)
(0.00111776 0.0124236 0)
(0.00130621 0.0135454 0)
(0.00129116 0.0132023 0)
(0.000820833 0.00802204 0)
(-0.000777924 0.0070237 0)
(-0.00121849 0.0109417 0)
(-0.00124982 0.0105849 0)
(-0.00111279 0.0091501 0)
(-0.000912168 0.007815 0)
(-0.00070317 0.00699044 0)
(-0.000558275 0.0065737 0)
(-0.000449421 0.00640159 0)
(-0.000367732 0.00632287 0)
(-0.00031278 0.00630326 0)
(-0.000256347 0.0063036 0)
(-0.000200531 0.00630968 0)
(-0.000144923 0.00631408 0)
(-8.83031e-05 0.00631725 0)
(-3.42398e-05 0.00632087 0)
(1.87261e-05 0.00633169 0)
(8.48988e-05 0.00634204 0)
(0.000148547 0.00633741 0)
(0.000201312 0.00633329 0)
(0.000258316 0.00632972 0)
(0.000318606 0.00632687 0)
(0.000375577 0.00633594 0)
(0.00045044 0.0064083 0)
(0.000545974 0.00658325 0)
(0.000678457 0.00698933 0)
(0.00088631 0.00777163 0)
(0.00112104 0.00909867 0)
(0.00127544 0.0105637 0)
(0.00123009 0.0109336 0)
(0.000781314 0.0070221 0)
(-0.000735469 0.00604078 0)
(-0.00113691 0.00871282 0)
(-0.00116453 0.00767612 0)
(-0.00107261 0.00594592 0)
(-0.000906007 0.00453603 0)
(-0.000681667 0.00362671 0)
(-0.000520168 0.00319588 0)
(-0.000427907 0.00300137 0)
(-0.000362806 0.00293184 0)
(-0.000301919 0.00289993 0)
(-0.000247571 0.00288913 0)
(-0.000193199 0.00289002 0)
(-0.000140324 0.00289302 0)
(-8.47238e-05 0.00289442 0)
(-2.7267e-05 0.00289473 0)
(3.18737e-05 0.0028942 0)
(8.60838e-05 0.00289777 0)
(0.000139546 0.00290769 0)
(0.000196306 0.00291296 0)
(0.000249825 0.00291823 0)
(0.000300669 0.00292483 0)
(0.000359197 0.00293536 0)
(0.00042603 0.00299361 0)
(0.000511126 0.00317967 0)
(0.000637514 0.00359159 0)
(0.000863796 0.00444276 0)
(0.00109276 0.00591212 0)
(0.00120477 0.00766146 0)
(0.00115318 0.00870904 0)
(0.000740116 0.00604073 0)
(-0.000693545 0.00507268 0)
(-0.00105006 0.00652173 0)
(-0.00105167 0.00481317 0)
(-0.000948997 0.00277199 0)
(-0.000845965 0.0013605 0)
(-0.0006598 0.000461277 0)
(-0.00049591 8.17567e-05 0)
(-0.000404812 -0.000174594 0)
(-0.000340351 -0.00019421 0)
(-0.00030261 -0.000273255 0)
(-0.000246263 -0.000312088 0)
(-0.00018899 -0.00032787 0)
(-0.000136077 -0.000323915 0)
(-8.39564e-05 -0.000339544 0)
(-3.37581e-05 -0.000327773 0)
(1.94652e-05 -0.000381528 0)
(9.13402e-05 -0.000383694 0)
(0.000154021 -0.000339244 0)
(0.000199309 -0.000306779 0)
(0.000248432 -0.000288265 0)
(0.000289652 -0.000238204 0)
(0.000324788 -0.000243844 0)
(0.000391776 -0.000215674 0)
(0.000467709 -7.72712e-06 0)
(0.000586981 0.000374893 0)
(0.000828956 0.00129417 0)
(0.00101377 0.00277845 0)
(0.00109152 0.00481648 0)
(0.00106595 0.00652585 0)
(0.000698049 0.00507487 0)
(-0.00065441 0.00412143 0)
(-0.000969739 0.00437379 0)
(-0.000944769 0.00199501 0)
(-0.000783464 -0.000398803 0)
(-0.000683094 -0.00194932 0)
(-0.000532184 -0.00277973 0)
(-0.000444857 -0.00321132 0)
(-0.000384731 -0.0034095 0)
(-0.000330293 -0.00347852 0)
(-0.000344396 -0.0035087 0)
(-0.000266839 -0.0035129 0)
(-0.000192664 -0.00350813 0)
(-0.000143505 -0.00350261 0)
(-8.18277e-05 -0.00349646 0)
(-5.53202e-05 -0.00348536 0)
(-9.96912e-06 -0.00349831 0)
(0.000112704 -0.0034967 0)
(0.000185468 -0.00349544 0)
(0.000219367 -0.00350567 0)
(0.000281052 -0.003502 0)
(0.000290993 -0.00349437 0)
(0.000273608 -0.00348536 0)
(0.000357932 -0.00341268 0)
(0.000405995 -0.00322568 0)
(0.000509696 -0.00276829 0)
(0.000708292 -0.00187172 0)
(0.000849109 -0.000359685 0)
(0.00097282 0.00201123 0)
(0.000980798 0.00438199 0)
(0.000657659 0.00412443 0)
(-0.000620388 0.00319147 0)
(-0.000906569 0.00227984 0)
(-0.000871755 -0.000754155 0)
(-0.000688473 -0.00351241 0)
(-0.000545088 -0.00532683 0)
(-0.000458136 -0.00626241 0)
(-0.000406098 -0.00679287 0)
(-0.000354366 -0.00695027 0)
(-0.000307857 -0.00706319 0)
(-0.000276905 -0.00703439 0)
(-0.00022145 -0.00699883 0)
(-0.000169031 -0.00697185 0)
(-0.000120113 -0.00696298 0)
(-6.59527e-05 -0.00693253 0)
(-3.0377e-05 -0.00693179 0)
(1.19815e-05 -0.00689058 0)
(8.62792e-05 -0.00689608 0)
(0.000133241 -0.00694087 0)
(0.000177469 -0.00698965 0)
(0.000232116 -0.00701096 0)
(0.000258684 -0.00705446 0)
(0.000287598 -0.00701738 0)
(0.00034034 -0.00691061 0)
(0.000390356 -0.00671987 0)
(0.000450683 -0.006183 0)
(0.000544561 -0.0052272 0)
(0.000702825 -0.00347366 0)
(0.000881998 -0.000738288 0)
(0.000911057 0.00228681 0)
(0.000622103 0.00319367 0)
(-0.000592438 0.00228812 0)
(-0.000859925 0.000250893 0)
(-0.00082633 -0.00340768 0)
(-0.000657833 -0.00650042 0)
(-0.00051318 -0.00852418 0)
(-0.0004295 -0.00962039 0)
(-0.000383341 -0.0101592 0)
(-0.000334621 -0.0103725 0)
(-0.000288744 -0.0104603 0)
(-0.000250942 -0.0104683 0)
(-0.000200896 -0.0104584 0)
(-0.000154769 -0.010446 0)
(-0.0001079 -0.0104365 0)
(-5.82071e-05 -0.0104229 0)
(-2.28307e-05 -0.0104215 0)
(1.6547e-05 -0.0104088 0)
(7.15961e-05 -0.010414 0)
(0.000110753 -0.0104368 0)
(0.000157092 -0.0104535 0)
(0.000210422 -0.0104722 0)
(0.00024348 -0.0104832 0)
(0.000280288 -0.0104549 0)
(0.000328986 -0.0103646 0)
(0.000376126 -0.0101385 0)
(0.000429103 -0.00959596 0)
(0.000512404 -0.00849429 0)
(0.000661171 -0.00648131 0)
(0.000829244 -0.00339825 0)
(0.000860506 0.000255025 0)
(0.000593073 0.00228848 0)
(-0.000572915 0.00141622 0)
(-0.000828341 -0.00170751 0)
(-0.00079692 -0.00595976 0)
(-0.000645661 -0.00935592 0)
(-0.000508324 -0.0115276 0)
(-0.000424384 -0.0127148 0)
(-0.00037278 -0.0132842 0)
(-0.000321031 -0.0135111 0)
(-0.000273574 -0.013605 0)
(-0.000232679 -0.0136194 0)
(-0.00018606 -0.0136175 0)
(-0.000143836 -0.01361 0)
(-9.87663e-05 -0.013598 0)
(-5.2971e-05 -0.0135928 0)
(-1.90419e-05 -0.0135937 0)
(1.76145e-05 -0.0135864 0)
(6.26772e-05 -0.0135927 0)
(9.89478e-05 -0.0136014 0)
(0.000141611 -0.0136099 0)
(0.000190733 -0.0136252 0)
(0.000229694 -0.0136359 0)
(0.0002719 -0.0136051 0)
(0.000319579 -0.0135171 0)
(0.000370737 -0.0132785 0)
(0.000427185 -0.0127059 0)
(0.000508397 -0.0115154 0)
(0.000645529 -0.00934415 0)
(0.000795456 -0.00595386 0)
(0.000825273 -0.00170515 0)
(0.000571526 0.00141406 0)
(-0.000564741 0.000560822 0)
(-0.000811506 -0.00359903 0)
(-0.000779498 -0.00841123 0)
(-0.000645752 -0.0120931 0)
(-0.000520439 -0.0143988 0)
(-0.000431554 -0.0156418 0)
(-0.000361944 -0.0162306 0)
(-0.000308513 -0.0164672 0)
(-0.000262026 -0.016562 0)
(-0.00021711 -0.0165806 0)
(-0.000175816 -0.0165819 0)
(-0.000132255 -0.0165739 0)
(-9.12078e-05 -0.016567 0)
(-5.38836e-05 -0.0165634 0)
(-1.73477e-05 -0.0165657 0)
(1.77832e-05 -0.0165585 0)
(5.75481e-05 -0.0165621 0)
(9.41702e-05 -0.0165686 0)
(0.000131262 -0.0165706 0)
(0.000171879 -0.0165855 0)
(0.000215852 -0.0165906 0)
(0.000262349 -0.0165621 0)
(0.000308584 -0.0164724 0)
(0.000366385 -0.0162271 0)
(0.000435964 -0.0156404 0)
(0.000522917 -0.0143931 0)
(0.000643829 -0.0120825 0)
(0.000774323 -0.00840665 0)
(0.000804337 -0.00359625 0)
(0.000559968 0.000560912 0)
(-0.00054772 -0.000282048 0)
(-0.000784965 -0.00542137 0)
(-0.000766134 -0.0107597 0)
(-0.000654742 -0.0147013 0)
(-0.000531627 -0.0171283 0)