/*--------------------------------*- C++ -*----------------------------------*\
| =========                 |                                                 |
| \      /  F ield         | OpenFOAM: The Open Source CFD Toolbox           |
|  \    /   O peration     | Version:  v2312                                 |
|   \  /    A nd           | Web:      www.OpenFOAM.org                      |
|    \/     M anipulation  |                                                 |
\*--------------------------------------------------------------------------*/
FoamFile
{
    version     2.0;
    format      ascii;
    class       volScalarField;
    location    "0";
    object      p;
}
// * * * * * * * * * * * * * * * * * * * * * * * * * * * * * * * * * * * * * //

dimensions      [0 2 -2 0 0 0 0];

internalField   nonuniform List<scalar>
9999
(
0.0
0.020000000000000004
0.04000000000000001
0.06
0.08000000000000002
0.1
0.12
0.13999999999999999
0.16000000000000003
0.18000000000000002
0.2
0.22000000000000003
0.24
0.26
0.27999999999999997
0.30000000000000004
0.32000000000000006
0.34
0.36000000000000004
0.38
0.4
0.42000000000000004
0.44000000000000006
0.45999999999999996
0.48
0.5
0.52
0.54
0.5599999999999999
0.58
0.6000000000000001
0.6200000000000001
0.6400000000000001
0.66
0.68
0.7000000000000001
0.7200000000000001
0.7400000000000001
0.76
0.78
0.8
0.82
0.8400000000000001
0.86
0.8800000000000001
0.9
0.9199999999999999
0.9400000000000001
0.96
0.9800000000000001
1.0
1.02
1.04
1.06
1.08
1.1
1.1199999999999999
1.1400000000000001
1.16
1.1800000000000002
1.2000000000000002
1.22
1.2400000000000002
1.26
1.2800000000000002
1.3
1.32
1.34
1.36
1.3800000000000001
1.4000000000000001
1.42
1.4400000000000002
1.46
1.4800000000000002
1.5
1.52
1.54
1.56
1.58
1.6
1.62
1.64
1.6600000000000001
1.6800000000000002
1.7000000000000002
1.72
1.74
1.7600000000000002
1.7800000000000002
1.8
1.82
1.8399999999999999
1.8600000000000003
1.8800000000000001
1.9000000000000001
1.92
1.94
1.9600000000000002
1.9800000000000002
2.0
2.02
2.04
2.06
2.08
2.1
2.12
2.14
2.16
2.18
2.2
2.22
2.2399999999999998
2.2600000000000002
2.2800000000000002
2.3000000000000003
2.32
2.34
2.3600000000000003
2.3800000000000003
2.4000000000000004
2.42
2.44
2.4600000000000004
2.4800000000000004
2.5
2.52
2.54
2.5600000000000005
2.58
2.6
2.62
2.64
2.66
2.68
2.7
2.72
2.74
2.7600000000000002
2.7800000000000002
2.8000000000000003
2.8200000000000003
2.84
2.8600000000000003
2.8800000000000003
2.9000000000000004
2.92
2.94
2.9600000000000004
2.9800000000000004
3.0
3.02
3.04
3.0600000000000005
3.08
3.1
3.12
3.14
3.16
3.18
3.2
3.2200000000000006
3.24
3.2600000000000002
3.28
3.3000000000000003
3.3200000000000003
3.34
3.3600000000000003
3.38
3.4000000000000004
3.4200000000000004
3.44
3.4600000000000004
3.48
3.5
3.5200000000000005
3.54
3.5600000000000005
3.58
3.6
3.6200000000000006
3.64
3.66
3.6799999999999997
3.7
3.7200000000000006
3.74
3.7600000000000002
3.78
3.8000000000000003
3.8200000000000003
3.84
3.8600000000000003
3.88
3.9000000000000004
3.9200000000000004
3.94
3.9600000000000004
3.98
4.0
4.0200000000000005
4.04
4.0600000000000005
4.08
4.1000000000000005
4.12
4.14
4.16
4.18
4.2
4.220000000000001
4.24
4.260000000000001
4.28
4.3
4.32
4.34
4.36
4.38
4.4
4.420000000000001
4.44
4.46
4.4799999999999995
4.5
4.5200000000000005
4.54
4.5600000000000005
4.58
4.6000000000000005
4.62
4.64
4.66
4.68
4.7
4.720000000000001
4.74
4.760000000000001
4.78
4.800000000000001
4.82
4.84
4.86
4.88
4.9
4.920000000000001
4.94
4.960000000000001
4.98
5.0
5.0200000000000005
5.04
5.0600000000000005
5.08
5.1000000000000005
5.120000000000001
5.140000000000001
5.16
5.18
5.2
5.220000000000001
5.24
5.260000000000001
5.28
5.300000000000001
5.32
5.34
5.36
5.38
5.4
5.420000000000001
5.44
5.460000000000001
5.48
5.5
5.5200000000000005
5.54
5.5600000000000005
5.58
5.6000000000000005
5.620000000000001
5.640000000000001
5.66
5.68
5.7
5.720000000000001
5.74
5.760000000000001
5.78
5.800000000000001
5.82
5.84
5.86
5.88
5.9
5.920000000000001
5.94
5.960000000000001
5.98
6.0
6.0200000000000005
6.04
6.0600000000000005
6.08
6.1000000000000005
6.120000000000001
6.140000000000001
6.16
6.18
6.2
6.220000000000001
6.24
6.260000000000001
6.28
6.300000000000001
6.32
6.34
6.36
6.38
6.4
6.420000000000001
6.440000000000001
6.46
6.48
6.5
6.5200000000000005
6.540000000000001
6.56
6.58
6.6000000000000005
6.620000000000001
6.640000000000001
6.66
6.68
6.7
6.720000000000001
6.740000000000001
6.76
6.78
6.800000000000001
6.82
6.840000000000001
6.859999999999999
6.88
6.9
6.920000000000001
6.940000000000001
6.96
6.98
7.0
7.0200000000000005
7.040000000000001
7.06
7.08
7.1000000000000005
7.120000000000001
7.140000000000001
7.16
7.18
7.2
7.220000000000001
7.240000000000001
7.26
7.28
7.300000000000001
7.32
7.340000000000001
7.359999999999999
7.38
7.4
7.420000000000001
7.440000000000001
7.46
7.48
7.5
7.5200000000000005
7.540000000000001
7.56
7.58
7.6000000000000005
7.620000000000001
7.640000000000001
7.66
7.68
7.7
7.720000000000001
7.740000000000001
7.76
7.78
7.800000000000001
7.82
7.840000000000001
7.859999999999999
7.88
7.9
7.920000000000001
7.940000000000001
7.96
7.98
8.0
8.020000000000001
8.040000000000001
8.06
8.08
8.1
8.120000000000001
8.14
8.16
8.18
8.200000000000001
8.22
8.24
8.26
8.28
8.3
8.32
8.340000000000002
8.36
8.38
8.4
8.42
8.440000000000001
8.459999999999999
8.48
8.5
8.520000000000001
8.540000000000001
8.56
8.58
8.6
8.620000000000001
8.64
8.66
8.68
8.700000000000001
8.72
8.74
8.76
8.78
8.8
8.82
8.840000000000002
8.86
8.88
8.9
8.92
8.940000000000001
8.959999999999999
8.98
9.0
9.020000000000001
9.040000000000001
9.06
9.08
9.1
9.120000000000001
9.14
9.16
9.18
9.200000000000001
9.22
9.24
9.26
9.28
9.3
9.32
9.340000000000002
9.36
9.38
9.4
9.42
9.440000000000001
9.459999999999999
9.48
9.5
9.520000000000001
9.540000000000001
9.56
9.58
9.600000000000001
9.620000000000001
9.64
9.66
9.68
9.700000000000001
9.72
9.740000000000002
9.76
9.780000000000001
9.8
9.82
9.840000000000002
9.86
9.88
9.9
9.920000000000002
9.940000000000001
9.96
9.98
10.0
10.020000000000001
10.040000000000001
10.06
10.08
10.100000000000001
10.120000000000001
10.14
10.16
10.18
10.200000000000001
10.22
10.240000000000002
10.26
10.280000000000001
10.3
10.32
10.340000000000002
10.36
10.38
10.4
10.420000000000002
10.440000000000001
10.46
10.48
10.5
10.520000000000001
10.540000000000001
10.56
10.58
10.600000000000001
10.620000000000001
10.64
10.66
10.68
10.700000000000001
10.72
10.740000000000002
10.76
10.780000000000001
10.8
10.82
10.840000000000002
10.86
10.88
10.9
10.920000000000002
10.940000000000001
10.96
10.98
11.0
11.020000000000001
11.040000000000001
11.06
11.08
11.100000000000001
11.120000000000001
11.14
11.16
11.18
11.200000000000001
11.22
11.240000000000002
11.26
11.280000000000001
11.3
11.32
11.340000000000002
11.36
11.38
11.4
11.420000000000002
11.440000000000001
11.46
11.48
11.5
11.520000000000001
11.540000000000001
11.56
11.58
11.600000000000001
11.620000000000001
11.64
11.66
11.68
11.700000000000001
11.72
11.740000000000002
11.76
11.780000000000001
11.8
11.82
11.840000000000002
11.86
11.88
11.9
11.920000000000002
11.940000000000001
11.96
11.98
12.0
12.020000000000001
12.040000000000001
12.06
12.08
12.100000000000001
12.120000000000001
12.14
12.16
12.18
12.200000000000001
12.22
12.240000000000002
12.26
12.280000000000001
12.3
12.32
12.340000000000002
12.36
12.38
12.4
12.420000000000002
12.440000000000001
12.46
12.48
12.5
12.520000000000001
12.540000000000001
12.56
12.58
12.600000000000001
12.620000000000001
12.64
12.66
12.68
12.700000000000001
12.72
12.740000000000002
12.76
12.780000000000001
12.8
12.82
12.840000000000002
12.86
12.880000000000003
12.9
12.92
12.940000000000001
12.96
12.980000000000002
13.0
13.02
13.040000000000001
13.06
13.080000000000002
13.100000000000001
13.12
13.14
13.16
13.180000000000001
13.200000000000001
13.219999999999999
13.240000000000002
13.26
13.280000000000001
13.3
13.32
13.340000000000002
13.36
13.380000000000003
13.4
13.42
13.440000000000001
13.46
13.480000000000002
13.5
13.52
13.540000000000001
13.56
13.580000000000002
13.600000000000001
13.62
13.64
13.66
13.680000000000001
13.700000000000001
13.719999999999999
13.740000000000002
13.76
13.780000000000001
13.8
13.82
13.840000000000002
13.86
13.880000000000003
13.9
13.92
13.940000000000001
13.96
13.980000000000002
14.0
14.02
14.040000000000001
14.06
14.080000000000002
14.100000000000001
14.12
14.14
14.16
14.180000000000001
14.200000000000001
14.219999999999999
14.240000000000002
14.26
14.280000000000001
14.3
14.32
14.340000000000002
14.36
14.380000000000003
14.4
14.42
14.440000000000001
14.46
14.480000000000002
14.5
14.52
14.540000000000001
14.56
14.580000000000002
14.600000000000001
14.62
14.64
14.66
14.680000000000001
14.700000000000001
14.719999999999999
14.740000000000002
14.76
14.780000000000001
14.8
14.82
14.840000000000002
14.86
14.880000000000003
14.9
14.92
14.940000000000001
14.96
14.980000000000002
15.0
15.02
15.040000000000001
15.06
15.080000000000002
15.100000000000001
15.12
15.14
15.16
15.180000000000001
15.200000000000001
15.219999999999999
15.240000000000002
15.26
15.280000000000001
15.3
15.32
15.340000000000002
15.36
15.380000000000003
15.4
15.42
15.440000000000001
15.46
15.480000000000002
15.5
15.52
15.540000000000001
15.56
15.580000000000002
15.600000000000001
15.62
15.64
15.66
15.680000000000001
15.700000000000001
15.719999999999999
15.740000000000002
15.76
15.780000000000001
15.8
15.82
15.840000000000002
15.86
15.880000000000003
15.9
15.92
15.940000000000001
15.96
15.980000000000002
16.0
16.02
16.040000000000003
16.06
16.080000000000002
16.1
16.12
16.14
16.16
16.180000000000003
16.2
16.22
16.240000000000002
16.26
16.28
16.3
16.32
16.34
16.36
16.380000000000003
16.400000000000002
16.419999999999998
16.44
16.46
16.48
16.5
16.52
16.540000000000003
16.56
16.580000000000002
16.6
16.62
16.64
16.66
16.680000000000003
16.7
16.72
16.740000000000002
16.76
16.78
16.8
16.82
16.84
16.86
16.880000000000003
16.900000000000002
16.919999999999998
16.94
16.96
16.98
17.0
17.02
17.040000000000003
17.06
17.080000000000002
17.1
17.12
17.14
17.16
17.180000000000003
17.2
17.22
17.240000000000002
17.26
17.28
17.3
17.32
17.34
17.36
17.380000000000003
17.400000000000002
17.419999999999998
17.44
17.46
17.48
17.5
17.52
17.540000000000003
17.56
17.580000000000002
17.6
17.62
17.64
17.66
17.680000000000003
17.7
17.72
17.740000000000002
17.76
17.78
17.8
17.82
17.84
17.86
17.880000000000003
17.900000000000002
17.919999999999998
17.94
17.96
17.98
18.0
18.02
18.040000000000003
18.06
18.080000000000002
18.1
18.12
18.14
18.16
18.180000000000003
18.2
18.22
18.240000000000002
18.26
18.28
18.3
18.32
18.34
18.36
18.380000000000003
18.400000000000002
18.419999999999998
18.44
18.46
18.48
18.5
18.52
18.540000000000003
18.56
18.580000000000002
18.6
18.62
18.64
18.66
18.680000000000003
18.7
18.72
18.740000000000002
18.76
18.78
18.8
18.82
18.84
18.86
18.880000000000003
18.900000000000002
18.919999999999998
18.94
18.96
18.98
19.0
19.02
19.040000000000003
19.06
19.080000000000002
19.1
19.12
19.14
19.16
19.180000000000003
19.200000000000003
19.22
19.240000000000002
19.26
19.28
19.3
19.32
19.340000000000003
19.36
19.380000000000003
19.400000000000002
19.42
19.44
19.46
19.480000000000004
19.5
19.52
19.540000000000003
19.560000000000002
19.580000000000002
19.6
19.62
19.64
19.66
19.680000000000003
19.700000000000003
19.72
19.740000000000002
19.76
19.78
19.8
19.82
19.840000000000003
19.86
19.880000000000003
19.900000000000002
19.92
19.94
19.96
19.980000000000004
20.0
20.02
20.040000000000003
20.060000000000002
20.080000000000002
20.1
20.12
20.14
20.16
20.180000000000003
20.200000000000003
20.22
20.240000000000002
20.26
20.28
20.3
20.32
20.340000000000003
20.36
20.380000000000003
20.400000000000002
20.42
20.44
20.46
20.480000000000004
20.5
20.52
20.540000000000003
20.560000000000002
20.580000000000002
20.6
20.62
20.64
20.66
20.680000000000003
20.700000000000003
20.72
20.740000000000002
20.76
20.78
20.8
20.82
20.840000000000003
20.86
20.880000000000003
20.900000000000002
20.92
20.94
20.96
20.980000000000004
21.0
21.02
21.040000000000003
21.060000000000002
21.080000000000002
21.1
21.12
21.14
21.16
21.180000000000003
21.200000000000003
21.22
21.240000000000002
21.26
21.28
21.3
21.32
21.340000000000003
21.36
21.380000000000003
21.400000000000002
21.42
21.44
21.46
21.480000000000004
21.5
21.52
21.540000000000003
21.560000000000002
21.580000000000002
21.6
21.62
21.64
21.66
21.680000000000003
21.700000000000003
21.72
21.740000000000002
21.76
21.78
21.8
21.82
21.840000000000003
21.86
21.880000000000003
21.900000000000002
21.92
21.94
21.96
21.980000000000004
22.0
22.02
22.040000000000003
22.060000000000002
22.080000000000002
22.1
22.12
22.14
22.16
22.180000000000003
22.200000000000003
22.22
22.240000000000002
22.26
22.28
22.3
22.32
22.340000000000003
22.36
22.380000000000003
22.400000000000002
22.42
22.44
22.46
22.480000000000004
22.5
22.52
22.540000000000003
22.560000000000002
22.580000000000002
22.6
22.62
22.64
22.66
22.680000000000003
22.700000000000003
22.72
22.740000000000002
22.76
22.78
22.8
22.82
22.840000000000003
22.86
22.880000000000003
22.900000000000002
22.92
22.94
22.96
22.980000000000004
23.0
23.02
23.040000000000003
23.060000000000002
23.080000000000002
23.1
23.12
23.14
23.16
23.180000000000003
23.200000000000003
23.22
23.240000000000002
23.26
23.28
23.3
23.32
23.340000000000003
23.36
23.380000000000003
23.400000000000002
23.42
23.44
23.46
23.480000000000004
23.5
23.52
23.540000000000003
23.560000000000002
23.580000000000002
23.6
23.62
23.64
23.66
23.680000000000003
23.700000000000003
23.72
23.740000000000002
23.76
23.78
23.8
23.82
23.840000000000003
23.86
23.880000000000003
23.900000000000002
23.92
23.94
23.96
23.980000000000004
24.0
24.02
24.040000000000003
24.060000000000002
24.080000000000002
24.1
24.12
24.14
24.16
24.180000000000003
24.200000000000003
24.22
24.240000000000002
24.26
24.28
24.3
24.32
24.340000000000003
24.36
24.380000000000003
24.400000000000002
24.42
24.44
24.46
24.480000000000004
24.5
24.52
24.540000000000003
24.560000000000002
24.580000000000002
24.6
24.62
24.64
24.66
24.680000000000003
24.700000000000003
24.72
24.740000000000002
24.76
24.78
24.8
24.82
24.840000000000003
24.86
24.880000000000003
24.900000000000002
24.92
24.94
24.96
24.980000000000004
25.0
25.02
25.040000000000003
25.060000000000002
25.080000000000002
25.1
25.12
25.14
25.16
25.180000000000003
25.200000000000003
25.22
25.240000000000002
25.26
25.28
25.3
25.32
25.340000000000003
25.36
25.380000000000003
25.400000000000002
25.42
25.44
25.46
25.480000000000004
25.5
25.52
25.540000000000003
25.560000000000002
25.580000000000002
25.6
25.62
25.64
25.660000000000004
25.680000000000003
25.700000000000003
25.72
25.74
25.760000000000005
25.78
25.8
25.82
25.84
25.860000000000003
25.880000000000003
25.900000000000002
25.92
25.939999999999998
25.960000000000004
25.980000000000004
26.0
26.02
26.04
26.060000000000002
26.080000000000002
26.1
26.12
26.14
26.160000000000004
26.180000000000003
26.200000000000003
26.22
26.24
26.260000000000005
26.28
26.3
26.32
26.34
26.360000000000003
26.380000000000003
26.400000000000002
26.42
26.439999999999998
26.460000000000004
26.480000000000004
26.5
26.52
26.54
26.560000000000002
26.580000000000002
26.6
26.62
26.64
26.660000000000004
26.680000000000003
26.700000000000003
26.72
26.74
26.760000000000005
26.78
26.8
26.82
26.84
26.860000000000003
26.880000000000003
26.900000000000002
26.92
26.939999999999998
26.960000000000004
26.980000000000004
27.0
27.02
27.04
27.060000000000002
27.080000000000002
27.1
27.12
27.14
27.160000000000004
27.180000000000003
27.200000000000003
27.22
27.24
27.260000000000005
27.28
27.3
27.32
27.34
27.360000000000003
27.380000000000003
27.400000000000002
27.42
27.439999999999998
27.460000000000004
27.480000000000004
27.5
27.52
27.54
27.560000000000002
27.580000000000002
27.6
27.62
27.64
27.660000000000004
27.680000000000003
27.700000000000003
27.72
27.74
27.760000000000005
27.78
27.8
27.82
27.84
27.860000000000003
27.880000000000003
27.900000000000002
27.92
27.939999999999998
27.960000000000004
27.980000000000004
28.0
28.02
28.04
28.060000000000002
28.080000000000002
28.1
28.12
28.14
28.160000000000004
28.180000000000003
28.200000000000003
28.22
28.24
28.260000000000005
28.28
28.3
28.32
28.34
28.360000000000003
28.380000000000003
28.400000000000002
28.42
28.439999999999998
28.460000000000004
28.480000000000004
28.5
28.52
28.54
28.560000000000002
28.580000000000002
28.6
28.62
28.64
28.660000000000004
28.680000000000003
28.700000000000003
28.72
28.74
28.760000000000005
28.78
28.8
28.82
28.84
28.860000000000003
28.880000000000003
28.900000000000002
28.92
28.939999999999998
28.960000000000004
28.980000000000004
29.0
29.02
29.04
29.060000000000002
29.080000000000002
29.1
29.12
29.14
29.160000000000004
29.180000000000003
29.200000000000003
29.22
29.24
29.260000000000005
29.28
29.3
29.32
29.34
29.360000000000003
29.380000000000003
29.400000000000002
29.42
29.439999999999998
29.460000000000004
29.480000000000004
29.5
29.52
29.54
29.560000000000002
29.580000000000002
29.6
29.62
29.64
29.660000000000004
29.680000000000003
29.700000000000003
29.72
29.74
29.760000000000005
29.78
29.8
29.82
29.84
29.860000000000003
29.880000000000003
29.900000000000002
29.92
29.939999999999998
29.960000000000004
29.980000000000004
30.0
30.02
30.04
30.060000000000002
30.080000000000002
30.1
30.12
30.14
30.160000000000004
30.180000000000003
30.200000000000003
30.22
30.24
30.260000000000005
30.28
30.3
30.32
30.34
30.360000000000003
30.380000000000003
30.400000000000002
30.42
30.439999999999998
30.460000000000004
30.480000000000004
30.5
30.52
30.54
30.560000000000002
30.580000000000002
30.6
30.62
30.64
30.660000000000004
30.680000000000003
30.700000000000003
30.72
30.74
30.760000000000005
30.78
30.8
30.82
30.84
30.860000000000003
30.880000000000003
30.900000000000002
30.92
30.939999999999998
30.960000000000004
30.980000000000004
31.0
31.02
31.04
31.060000000000002
31.080000000000002
31.1
31.12
31.14
31.160000000000004
31.180000000000003
31.200000000000003
31.22
31.24
31.260000000000005
31.28
31.3
31.32
31.34
31.360000000000003
31.380000000000003
31.400000000000002
31.42
31.439999999999998
31.460000000000004
31.480000000000004
31.5
31.52
31.54
31.560000000000002
31.580000000000002
31.6
31.62
31.64
31.660000000000004
31.680000000000003
31.700000000000003
31.72
31.74
31.760000000000005
31.78
31.8
31.82
31.84
31.860000000000003
31.880000000000003
31.900000000000002
31.92
31.939999999999998
31.960000000000004
31.980000000000004
32.0
32.02
32.04
32.06
32.080000000000005
32.1
32.12
32.14
32.160000000000004
32.18
32.2
32.22
32.24
32.260000000000005
32.28
32.300000000000004
32.32
32.339999999999996
32.36000000000001
32.38
32.4
32.42
32.44
32.46
32.480000000000004
32.5
32.52
32.54
32.56
32.580000000000005
32.6
32.62
32.64
32.660000000000004
32.68
32.7
32.72
32.74
32.760000000000005
32.78
32.800000000000004
32.82
32.839999999999996
32.86000000000001
32.88
32.9
32.92
32.94
32.96
32.980000000000004
33.0
33.02
33.04
33.06
33.080000000000005
33.1
33.12
33.14
33.160000000000004
33.18
33.2
33.22
33.24
33.260000000000005
33.28
33.300000000000004
33.32
33.339999999999996
33.36000000000001
33.38
33.4
33.42
33.44
33.46
33.480000000000004
33.5
33.52
33.54
33.56
33.580000000000005
33.6
33.62
33.64
33.660000000000004
33.68
33.7
33.72
33.74
33.760000000000005
33.78
33.800000000000004
33.82
33.839999999999996
33.86000000000001
33.88
33.9
33.92
33.94
33.96
33.980000000000004
34.0
34.02
34.04
34.06
34.080000000000005
34.1
34.12
34.14
34.160000000000004
34.18
34.2
34.22
34.24
34.260000000000005
34.28
34.300000000000004
34.32
34.339999999999996
34.36000000000001
34.38
34.4
34.42
34.44
34.46
34.480000000000004
34.5
34.52
34.54
34.56
34.580000000000005
34.6
34.62
34.64
34.660000000000004
34.68
34.7
34.72
34.74
34.760000000000005
34.78
34.800000000000004
34.82
34.839999999999996
34.86000000000001
34.88
34.9
34.92
34.94
34.96
34.980000000000004
35.0
35.02
35.04
35.06
35.080000000000005
35.1
35.12
35.14
35.160000000000004
35.18
35.2
35.22
35.24
35.260000000000005
35.28
35.300000000000004
35.32
35.339999999999996
35.36000000000001
35.38
35.4
35.42
35.44
35.46
35.480000000000004
35.5
35.52
35.54
35.56
35.580000000000005
35.6
35.62
35.64
35.660000000000004
35.68
35.7
35.72
35.74
35.760000000000005
35.78
35.800000000000004
35.82
35.839999999999996
35.86000000000001
35.88
35.9
35.92
35.94
35.96
35.980000000000004
36.0
36.02
36.04
36.06
36.080000000000005
36.1
36.12
36.14
36.160000000000004
36.18
36.2
36.22
36.24
36.260000000000005
36.28
36.300000000000004
36.32
36.339999999999996
36.36000000000001
36.38
36.4
36.42
36.44
36.46
36.480000000000004
36.5
36.52
36.54
36.56
36.580000000000005
36.6
36.62
36.64
36.660000000000004
36.68
36.7
36.72
36.74
36.760000000000005
36.78
36.800000000000004
36.82
36.839999999999996
36.86000000000001
36.88
36.9
36.92
36.94
36.96
36.980000000000004
37.0
37.02
37.04
37.06
37.080000000000005
37.1
37.12
37.14
37.160000000000004
37.18
37.2
37.22
37.24
37.260000000000005
37.28
37.300000000000004
37.32
37.339999999999996
37.36000000000001
37.38
37.4
37.42
37.44
37.46
37.480000000000004
37.5
37.52
37.54
37.56
37.580000000000005
37.6
37.62
37.64
37.660000000000004
37.68
37.7
37.72
37.74
37.760000000000005
37.78
37.800000000000004
37.82
37.839999999999996
37.86000000000001
37.88
37.9
37.92
37.94
37.96
37.980000000000004
38.0
38.02
38.04
38.06
38.080000000000005
38.1
38.12
38.14
38.160000000000004
38.18
38.2
38.22
38.24
38.260000000000005
38.28
38.300000000000004
38.32
38.339999999999996
38.36000000000001
38.38
38.400000000000006
38.42
38.44
38.46000000000001
38.480000000000004
38.5
38.52
38.54
38.56
38.580000000000005
38.6
38.620000000000005
38.64
38.660000000000004
38.68000000000001
38.7
38.72
38.74
38.760000000000005
38.78
38.800000000000004
38.82
38.84
38.86000000000001
38.88
38.900000000000006
38.92
38.94
38.96000000000001
38.980000000000004
39.0
39.02
39.04
39.06
39.080000000000005
39.1
39.120000000000005
39.14
39.160000000000004
39.18000000000001
39.2
39.22
39.24
39.260000000000005
39.28
39.300000000000004
39.32
39.34
39.36000000000001
39.38
39.400000000000006
39.42
39.44
39.46000000000001
39.480000000000004
39.5
39.52
39.54
39.56
39.580000000000005
39.6
39.620000000000005
39.64
39.660000000000004
39.68000000000001
39.7
39.72
39.74
39.760000000000005
39.78
39.800000000000004
39.82
39.84
39.86000000000001
39.88
39.900000000000006
39.92
39.94
39.96000000000001
39.980000000000004
0.0
0.020000000000000004
0.04000000000000001
0.06
0.08000000000000002
0.1
0.12
0.13999999999999999
0.16000000000000003
0.18000000000000002
0.2
0.22000000000000003
0.24
0.26
0.27999999999999997
0.30000000000000004
0.32000000000000006
0.34
0.36000000000000004
0.38
0.4
0.42000000000000004
0.44000000000000006
0.45999999999999996
0.48
0.5
0.52
0.54
0.5599999999999999
0.58
0.6000000000000001
0.6200000000000001
0.6400000000000001
0.66
0.68
0.7000000000000001
0.7200000000000001
0.7400000000000001
0.76
0.78
0.8
0.82
0.8400000000000001
0.86
0.8800000000000001
0.9
0.9199999999999999
0.9400000000000001
0.96
0.9800000000000001
1.0
1.02
1.04
1.06
1.08
1.1
1.1199999999999999
1.1400000000000001
1.16
1.1800000000000002
1.2000000000000002
1.22
1.2400000000000002
1.26
1.2800000000000002
1.3
1.32
1.34
1.36
1.3800000000000001
1.4000000000000001
1.42
1.4400000000000002
1.46
1.4800000000000002
1.5
1.52
1.54
1.56
1.58
1.6
1.62
1.64
1.6600000000000001
1.6800000000000002
1.7000000000000002
1.72
1.74
1.7600000000000002
1.7800000000000002
1.8
1.82
1.8399999999999999
1.8600000000000003
1.8800000000000001
1.9000000000000001
1.92
1.94
1.9600000000000002
1.9800000000000002
2.0
2.02
2.04
2.06
2.08
2.1
2.12
2.14
2.16
2.18
2.2
2.22
2.2399999999999998
2.2600000000000002
2.2800000000000002
2.3000000000000003
2.32
2.34
2.3600000000000003
2.3800000000000003
2.4000000000000004
2.42
2.44
2.4600000000000004
2.4800000000000004
2.5
2.52
2.54
2.5600000000000005
2.58
2.6
2.62
2.64
2.66
2.68
2.7
2.72
2.74
2.7600000000000002
2.7800000000000002
2.8000000000000003
2.8200000000000003
2.84
2.8600000000000003
2.8800000000000003
2.9000000000000004
2.92
2.94
2.9600000000000004
2.9800000000000004
3.0
3.02
3.04
3.0600000000000005
3.08
3.1
3.12
3.14
3.16
3.18
3.2
3.2200000000000006
3.24
3.2600000000000002
3.28
3.3000000000000003
3.3200000000000003
3.34
3.3600000000000003
3.38
3.4000000000000004
3.4200000000000004
3.44
3.4600000000000004
3.48
3.5
3.5200000000000005
3.54
3.5600000000000005
3.58
3.6
3.6200000000000006
3.64
3.66
3.6799999999999997
3.7
3.7200000000000006
3.74
3.7600000000000002
3.78
3.8000000000000003
3.8200000000000003
3.84
3.8600000000000003
3.88
3.9000000000000004
3.9200000000000004
3.94
3.9600000000000004
3.98
4.0
4.0200000000000005
4.04
4.0600000000000005
4.08
4.1000000000000005
4.12
4.14
4.16
4.18
4.2
4.220000000000001
4.24
4.260000000000001
4.28
4.3
4.32
4.34
4.36
4.38
4.4
4.420000000000001
4.44
4.46
4.4799999999999995
4.5
4.5200000000000005
4.54
4.5600000000000005
4.58
4.6000000000000005
4.62
4.64
4.66
4.68
4.7
4.720000000000001
4.74
4.760000000000001
4.78
4.800000000000001
4.82
4.84
4.86
4.88
4.9
4.920000000000001
4.94
4.960000000000001
4.98
5.0
5.0200000000000005
5.04
5.0600000000000005
5.08
5.1000000000000005
5.120000000000001
5.140000000000001
5.16
5.18
5.2
5.220000000000001
5.24
5.260000000000001
5.28
5.300000000000001
5.32
5.34
5.36
5.38
5.4
5.420000000000001
5.44
5.460000000000001
5.48
5.5
5.5200000000000005
5.54
5.5600000000000005
5.58
5.6000000000000005
5.620000000000001
5.640000000000001
5.66
5.68
5.7
5.720000000000001
5.74
5.760000000000001
5.78
5.800000000000001
5.82
5.84
5.86
5.88
5.9
5.920000000000001
5.94
5.960000000000001
5.98
6.0
6.0200000000000005
6.04
6.0600000000000005
6.08
6.1000000000000005
6.120000000000001
6.140000000000001
6.16
6.18
6.2
6.220000000000001
6.24
6.260000000000001
6.28
6.300000000000001
6.32
6.34
6.36
6.38
6.4
6.420000000000001
6.440000000000001
6.46
6.48
6.5
6.5200000000000005
6.540000000000001
6.56
6.58
6.6000000000000005
6.620000000000001
6.640000000000001
6.66
6.68
6.7
6.720000000000001
6.740000000000001
6.76
6.78
6.800000000000001
6.82
6.840000000000001
6.859999999999999
6.88
6.9
6.920000000000001
6.940000000000001
6.96
6.98
7.0
7.0200000000000005
7.040000000000001
7.06
7.08
7.1000000000000005
7.120000000000001
7.140000000000001
7.16
7.18
7.2
7.220000000000001
7.240000000000001
7.26
7.28
7.300000000000001
7.32
7.340000000000001
7.359999999999999
7.38
7.4
7.420000000000001
7.440000000000001
7.46
7.48
7.5
7.5200000000000005
7.540000000000001
7.56
7.58
7.6000000000000005
7.620000000000001
7.640000000000001
7.66
7.68
7.7
7.720000000000001
7.740000000000001
7.76
7.78
7.800000000000001
7.82
7.840000000000001
7.859999999999999
7.88
7.9
7.920000000000001
7.940000000000001
7.96
7.98
8.0
8.020000000000001
8.040000000000001
8.06
8.08
8.1
8.120000000000001
8.14
8.16
8.18
8.200000000000001
8.22
8.24
8.26
8.28
8.3
8.32
8.340000000000002
8.36
8.38
8.4
8.42
8.440000000000001
8.459999999999999
8.48
8.5
8.520000000000001
8.540000000000001
8.56
8.58
8.6
8.620000000000001
8.64
8.66
8.68
8.700000000000001
8.72
8.74
8.76
8.78
8.8
8.82
8.840000000000002
8.86
8.88
8.9
8.92
8.940000000000001
8.959999999999999
8.98
9.0
9.020000000000001
9.040000000000001
9.06
9.08
9.1
9.120000000000001
9.14
9.16
9.18
9.200000000000001
9.22
9.24
9.26
9.28
9.3
9.32
9.340000000000002
9.36
9.38
9.4
9.42
9.440000000000001
9.459999999999999
9.48
9.5
9.520000000000001
9.540000000000001
9.56
9.58
9.600000000000001
9.620000000000001
9.64
9.66
9.68
9.700000000000001
9.72
9.740000000000002
9.76
9.780000000000001
9.8
9.82
9.840000000000002
9.86
9.88
9.9
9.920000000000002
9.940000000000001
9.96
9.98
10.0
10.020000000000001
10.040000000000001
10.06
10.08
10.100000000000001
10.120000000000001
10.14
10.16
10.18
10.200000000000001
10.22
10.240000000000002
10.26
10.280000000000001
10.3
10.32
10.340000000000002
10.36
10.38
10.4
10.420000000000002
10.440000000000001
10.46
10.48
10.5
10.520000000000001
10.540000000000001
10.56
10.58
10.600000000000001
10.620000000000001
10.64
10.66
10.68
10.700000000000001
10.72
10.740000000000002
10.76
10.780000000000001
10.8
10.82
10.840000000000002
10.86
10.88
10.9
10.920000000000002
10.940000000000001
10.96
10.98
11.0
11.020000000000001
11.040000000000001
11.06
11.08
11.100000000000001
11.120000000000001
11.14
11.16
11.18
11.200000000000001
11.22
11.240000000000002
11.26
11.280000000000001
11.3
11.32
11.340000000000002
11.36
11.38
11.4
11.420000000000002
11.440000000000001
11.46
11.48
11.5
11.520000000000001
11.540000000000001
11.56
11.58
11.600000000000001
11.620000000000001
11.64
11.66
11.68
11.700000000000001
11.72
11.740000000000002
11.76
11.780000000000001
11.8
11.82
11.840000000000002
11.86
11.88
11.9
11.920000000000002
11.940000000000001
11.96
11.98
12.0
12.020000000000001
12.040000000000001
12.06
12.08
12.100000000000001
12.120000000000001
12.14
12.16
12.18
12.200000000000001
12.22
12.240000000000002
12.26
12.280000000000001
12.3
12.32
12.340000000000002
12.36
12.38
12.4
12.420000000000002
12.440000000000001
12.46
12.48
12.5
12.520000000000001
12.540000000000001
12.56
12.58
12.600000000000001
12.620000000000001
12.64
12.66
12.68
12.700000000000001
12.72
12.740000000000002
12.76
12.780000000000001
12.8
12.82
12.840000000000002
12.86
12.880000000000003
12.9
12.92
12.940000000000001
12.96
12.980000000000002
13.0
13.02
13.040000000000001
13.06
13.080000000000002
13.100000000000001
13.12
13.14
13.16
13.180000000000001
13.200000000000001
13.219999999999999
13.240000000000002
13.26
13.280000000000001
13.3
13.32
13.340000000000002
13.36
13.380000000000003
13.4
13.42
13.440000000000001
13.46
13.480000000000002
13.5
13.52
13.540000000000001
13.56
13.580000000000002
13.600000000000001
13.62
13.64
13.66
13.680000000000001
13.700000000000001
13.719999999999999
13.740000000000002
13.76
13.780000000000001
13.8
13.82
13.840000000000002
13.86
13.880000000000003
13.9
13.92
13.940000000000001
13.96
13.980000000000002
14.0
14.02
14.040000000000001
14.06
14.080000000000002
14.100000000000001
14.12
14.14
14.16
14.180000000000001
14.200000000000001
14.219999999999999
14.240000000000002
14.26
14.280000000000001
14.3
14.32