/*--------------------------------*- C++ -*----------------------------------*\
| =========                 |                                                 |
| \\      /  F ield         | OpenFOAM: The Open Source CFD Toolbox           |
|  \\    /   O peration     | Version:  2312                                  |
|   \\  /    A nd           | Website:  www.openfoam.com                      |
|    \\/     M anipulation  |                                                 |
\*---------------------------------------------------------------------------*/
FoamFile
{
    version     2.0;
    format      ascii;
    arch        "LSB;label=32;scalar=64";
    class       volScalarField;
    location    "350";
    object      div(phi);
}
// * * * * * * * * * * * * * * * * * * * * * * * * * * * * * * * * * * * * * //

dimensions      [0 0 -1 0 0 0 0];

internalField   nonuniform List<scalar> 
10720
(
1.62252e-06
-1.46228e-06
7.63795e-07
-8.96785e-07
3.13864e-07
-1.87821e-08
3.3502e-07
1.69122e-07
-6.20067e-08
-2.37389e-07
-2.00017e-07
-2.17051e-07
-1.21452e-07
-1.06413e-07
-1.32654e-08
-6.03637e-10
1.25797e-07
1.57995e-07
4.00484e-07
2.90156e-07
7.67215e-07
8.65994e-07
5.0157e-06
-5.50105e-08
-1.76112e-05
1.56168e-05
3.0409e-05
-1.72622e-05
-2.05849e-05
2.10974e-05
-4.11778e-06
1.22463e-05
-2.53719e-06
-1.44564e-05
2.02104e-05
1.65887e-05
2.25574e-06
3.40539e-05
0.000390777
-1.37873e-06
9.82791e-07
-4.88562e-07
1.14141e-07
-1.43279e-07
-1.49222e-07
7.08887e-09
1.29472e-07
-2.47838e-09
9.63058e-08
6.19444e-08
1.76555e-07
1.50415e-07
2.1037e-07
1.60149e-07
1.92657e-07
1.3156e-07
1.76514e-07
7.56264e-08
1.32236e-07
-8.35254e-08
-6.0757e-08
-5.52065e-07
-6.8574e-07
-6.75094e-07
-6.45766e-07
-4.86875e-07
-4.90496e-07
-8.68796e-08
-7.44529e-07
-6.10855e-07
-1.37069e-06
-1.90177e-07
2.61379e-06
-3.5474e-06
-8.6707e-06
8.01871e-06
-7.37574e-07
-7.44022e-06
7.67546e-07
-4.46887e-07
5.3951e-07
-7.05835e-07
4.983e-07
6.10852e-08
3.94457e-07
9.05023e-08
-1.45847e-07
-2.40578e-07
-2.00992e-07
-2.10334e-07
-1.32941e-07
-1.7257e-07
-1.18879e-07
-1.85499e-07
-1.17979e-07
-1.69293e-07
-6.11411e-08
-1.49422e-07
-3.5282e-08
5.48666e-08
1.33934e-06
1.28795e-06
-1.73666e-06
1.39335e-06
7.42227e-06
-2.75005e-06
-5.56061e-06
9.07736e-06
-2.54668e-08
7.67355e-06
1.9468e-06
-5.24538e-06
1.22163e-05
1.09289e-05
1.48803e-06
3.14805e-05
0.000228774
-6.41248e-08
5.51997e-07
-3.03267e-07
7.63096e-08
-2.78102e-07
-8.19985e-10
6.96541e-08
6.18827e-08
1.15661e-08
4.65289e-08
5.69267e-08
1.41684e-07
1.34297e-07
1.91219e-07
1.51024e-07
1.90499e-07
1.37483e-07
1.74801e-07
9.10104e-08
1.08496e-07
-6.59144e-08
-1.2085e-07
-5.35854e-07
-6.91828e-07
-7.97887e-07
-7.14775e-07
-6.15326e-07
-5.01388e-07
-2.69233e-07
-8.50424e-07
-7.5425e-07
-1.4294e-06
-9.73209e-07
1.3967e-06
-2.28093e-06
-6.51698e-06
7.28513e-06
-3.23759e-06
-4.9378e-06
-1.58254e-06
1.07312e-06
-1.04632e-06
7.25447e-07
-1.33919e-07
5.2936e-07
2.49676e-07
-8.82116e-09
-2.2557e-07
-2.35157e-07
-2.65567e-07
-1.7294e-07
-1.61336e-07
-5.88692e-08
-3.76065e-08
5.4797e-08
1.16551e-07
2.26806e-07
3.54203e-07
4.1312e-07
5.23992e-07
6.08594e-07
1.88706e-06
2.89965e-07
-6.3353e-06
7.36447e-06
1.93156e-05
-1.01995e-05
-1.40732e-05
1.29766e-05
-3.36661e-06
6.84324e-06
-3.15701e-06
-9.59551e-06
1.10935e-05
7.97077e-06
1.64159e-06
7.82519e-06
0.000115951
1.14201e-06
-6.00233e-07
2.48956e-07
-3.33597e-07
-2.64496e-08
-2.34166e-08
1.13853e-07
2.98304e-08
6.8862e-08
2.4209e-08
1.23004e-07
1.04484e-07
1.78259e-07
1.44687e-07
1.77387e-07
1.38117e-07
1.49647e-07
1.18986e-07
1.09588e-07
7.2613e-08
4.70882e-09
-8.27071e-08
-3.18209e-07
-4.67322e-07
-4.79251e-07
-4.60233e-07
-4.32162e-07
-3.69858e-07
-8.1514e-08
-5.02936e-07
-4.45207e-07
-1.31716e-06
2.16074e-07
3.28683e-06
-3.77918e-06
-9.39176e-06
8.83942e-06
-7.73455e-07
-5.25886e-06
9.66601e-07
-5.83861e-07
3.93892e-07
-7.59372e-08
4.96619e-07
4.23194e-07
1.47117e-07
-1.14553e-07
-2.43037e-07
-2.50335e-07
-2.51974e-07
-1.72526e-07
-1.88741e-07
-1.19239e-07
-1.8648e-07
-1.2878e-07
-2.07623e-07
-1.19947e-07
-1.65807e-07
-1.02558e-07
-1.98685e-07
4.04325e-08
8.04956e-07
7.16382e-07
-1.31842e-06
6.82564e-07
4.38663e-06
-1.17189e-06
-2.89003e-06
6.40458e-06
4.76492e-07
5.69933e-06
2.10265e-06
-3.28953e-06
9.22311e-06
7.83573e-06
9.14341e-07
2.1595e-05
0.000119582
-4.35914e-07
7.90035e-08
-2.90942e-07
-1.5754e-07
-8.40951e-08
1.55418e-07
8.98985e-08
6.28693e-08
3.14094e-08
4.28276e-08
8.97006e-08
1.0183e-07
1.54286e-07
1.28626e-07
1.68992e-07
1.23936e-07
1.60455e-07
1.06379e-07
1.25333e-07
4.44974e-08
3.44491e-09
-1.49999e-07
-3.43313e-07
-5.55469e-07
-6.32664e-07
-6.72563e-07
-5.92765e-07
-5.20332e-07
-3.29077e-07
-7.13856e-07
-7.38753e-07
-1.47364e-06
-1.04594e-06
1.57114e-06
-2.39195e-06
-7.2989e-06
8.64125e-06
-4.5955e-06
-4.27377e-06
5.49151e-07
7.62008e-08
9.98637e-08
3.90002e-07
4.65431e-07
3.27728e-07
6.75008e-08
-1.79163e-07
-2.34352e-07
-2.98162e-07
-2.08425e-07
-2.17447e-07
-1.11554e-07
-1.14168e-07
-2.09232e-08
-6.5839e-09
1.05199e-07
1.8068e-07
3.36951e-07
4.10509e-07
4.75422e-07
5.61469e-07
1.63505e-06
6.66423e-07
-4.15053e-06
8.25895e-06
1.8321e-05
-7.92162e-06
-1.55009e-05
1.26516e-05
-2.47137e-06
6.29215e-06
-3.4974e-06
-1.15768e-05
1.06668e-05
7.3105e-06
1.02949e-06
3.23577e-06
5.95809e-05
-2.42844e-07
-1.30349e-07
-3.34656e-07
-1.47159e-07
1.07653e-07
8.34487e-08
9.0943e-08
7.12553e-08
1.73269e-08
8.42554e-08
7.00041e-08
1.48607e-07
1.17829e-07
1.6777e-07
1.22068e-07
1.52106e-07
1.05221e-07
1.27232e-07
7.66361e-08
8.61646e-08
2.37221e-09
-2.65986e-08
-2.07748e-07
-2.53355e-07
-3.6615e-07
-3.25522e-07
-3.73182e-07
-2.64581e-07
-1.06279e-07
-1.96062e-07
-3.30006e-07
-1.18738e-06
3.79725e-07
3.90777e-06
-3.74256e-06
-1.0704e-05
1.03913e-05
-2.10404e-06
-3.74517e-06
-4.60095e-09
1.4187e-07
4.63176e-07
2.87219e-07
4.43571e-07
2.61713e-07
-3.64597e-08
-1.80376e-07
-2.58212e-07
-2.71115e-07
-2.07291e-07
-2.0197e-07
-1.30478e-07
-1.71075e-07
-1.17478e-07
-1.93651e-07
-1.33546e-07
-1.98478e-07
-1.05447e-07
-2.0024e-07
-1.93666e-07
-1.10411e-07
5.58538e-07
2.39837e-07
-9.96493e-07
2.42323e-07
2.89824e-06
-6.15561e-07
-1.6459e-06
5.69168e-06
7.60672e-07
5.48748e-06
2.3327e-06
-3.49919e-06
9.69009e-06
7.98515e-06
1.04124e-07
1.87893e-05
7.80128e-05
-5.12941e-08
-3.06851e-07
-3.20989e-07
-4.5945e-08
6.35945e-08
1.64814e-07
1.00923e-07
4.21722e-08
3.92912e-08
5.39473e-08
8.50817e-08
1.21741e-07
1.20981e-07
1.42323e-07
1.16747e-07
1.33832e-07
1.02716e-07
1.14089e-07
7.60503e-08
5.67436e-08
-1.02459e-08
-1.02993e-07
-2.42427e-07
-4.02405e-07
-5.03607e-07
-5.93195e-07
-5.62187e-07
-5.41945e-07
-3.46953e-07
-5.8795e-07
-6.74373e-07
-1.37692e-06
-9.96969e-07
1.45417e-06
-2.11856e-06
-6.87498e-06
8.69205e-06
-5.49863e-06
-3.36824e-06
-5.44592e-07
5.75415e-07
1.26567e-07
4.3835e-07
3.63341e-07
1.13534e-07
-4.92485e-08
-1.82047e-07
-2.88383e-07
-2.2281e-07
-2.4348e-07
-1.3924e-07
-1.58003e-07
-7.24616e-08
-8.70415e-08
-4.14298e-09
2.43508e-08
1.50868e-07
2.50667e-07
3.53731e-07
3.5951e-07
4.82619e-07
1.45692e-06
8.70371e-07
-1.5135e-06
6.49211e-06
1.57756e-05
-5.83834e-06
-1.54071e-05
1.11004e-05
-1.52441e-06
5.7639e-06
-4.57378e-06
-1.34531e-05
1.19299e-05
8.22688e-06
-1.27933e-06
1.97423e-06
3.54098e-05
4.53193e-08
-5.47184e-07
-1.5874e-07
-4.24328e-08
1.30667e-07
9.88788e-08
9.72707e-08
3.34635e-08
4.71041e-08
4.31567e-08
1.12589e-07
9.84865e-08
1.49863e-07
1.0793e-07
1.40314e-07
9.19768e-08
1.1938e-07
6.91328e-08
9.76138e-08
3.17334e-08
5.71676e-08
-5.45424e-08
-4.87934e-08
-2.02902e-07
-1.55817e-07
-2.9855e-07
-2.01969e-07
-2.57565e-07
3.97095e-08
-6.95921e-09
-1.72947e-07
-1.11372e-06
5.40967e-07
4.01876e-06
-3.63036e-06
-1.07007e-05
1.16194e-05
-2.95239e-06
-2.31963e-06
1.09617e-06
1.92933e-07
4.91565e-07
3.90005e-07
1.94173e-07
1.1817e-07
-8.35677e-08
-1.71242e-07
-2.3818e-07
-2.1954e-07
-2.07969e-07
-1.40771e-07
-1.57381e-07
-1.02959e-07
-1.61832e-07
-1.08215e-07
-1.81146e-07
-1.02922e-07
-1.69567e-07
-1.29948e-07
-2.84777e-07
-4.76528e-08
2.86893e-07
1.25694e-07
-9.46213e-07
8.75448e-08
1.70725e-06
-1.2936e-07
-5.23794e-07
4.61418e-06
7.5046e-07
4.50457e-06
2.44073e-06
-3.08885e-06
9.43261e-06
8.26402e-06
-8.55257e-07
1.83245e-05
5.68287e-05
-5.3969e-07
-7.00479e-08
-2.3256e-07
-2.72157e-09
7.92623e-08
1.42007e-07
6.86229e-08
3.78882e-08
2.44555e-08
5.79687e-08
8.56232e-08
1.1725e-07
1.20353e-07
1.19755e-07
1.06526e-07
1.01344e-07
8.46002e-08
8.37097e-08
5.52355e-08
4.48369e-08
-1.34976e-08
-6.5654e-08
-1.72423e-07
-2.80439e-07
-3.87252e-07
-4.84337e-07
-5.11346e-07
-5.20073e-07
-3.57143e-07
-5.07055e-07
-6.45082e-07
-1.24778e-06
-9.26965e-07
1.28469e-06
-1.8591e-06
-6.11235e-06
8.18181e-06
-5.65709e-06
-2.54476e-06
-1.86272e-07
5.4319e-07
4.30328e-07
2.59322e-07
2.42131e-07
1.76263e-08
-7.1988e-09
-2.04696e-07
-1.92399e-07
-2.49736e-07
-1.51015e-07
-1.747e-07
-8.76187e-08
-1.26188e-07
-5.19922e-08
-7.72537e-08
1.99047e-08
5.38236e-08
1.96482e-07
2.08204e-07
2.43435e-07
3.78434e-07
1.18994e-06
9.74635e-07
-6.65469e-07
4.55395e-06
1.1193e-05
-4.55079e-06
-1.24154e-05
8.63215e-06
1.46668e-07
4.89039e-06
-4.56038e-06
-1.44342e-05
1.13047e-05
8.49402e-06
-3.38217e-06
1.50363e-06
2.18269e-05
1.19422e-07
-3.2513e-07
-1.159e-07
1.17738e-08
1.15786e-07
8.95979e-08
6.36754e-08
3.3042e-08
2.13606e-08
6.30369e-08
7.92252e-08
1.25789e-07
1.05151e-07
1.23908e-07
8.63244e-08
9.98778e-08
6.22916e-08
7.99612e-08
3.8656e-08
6.02547e-08
5.25511e-09
1.99915e-08
-5.78261e-08
-5.13992e-08
-1.27714e-07
-1.13986e-07
-1.68404e-07
-8.79248e-08
8.15578e-08
1.55665e-07
-7.9265e-08
-9.94635e-07
5.02347e-07
4.12969e-06
-3.35587e-06
-1.09426e-05
1.20134e-05
-3.64385e-06
-1.25049e-06
5.0984e-07
4.65817e-07
3.38725e-07
2.9666e-07
8.78857e-08
1.23005e-07
-1.01587e-07
-1.25222e-07
-2.08313e-07
-2.06699e-07
-1.59521e-07
-1.47521e-07
-1.01034e-07
-1.2592e-07
-9.37112e-08
-1.35831e-07
-9.37956e-08
-1.24624e-07
-9.64852e-08
-1.76152e-07
-2.09424e-07
-7.54352e-08
2.45884e-07
-5.6238e-08
-8.09417e-07
-2.44735e-08
1.0508e-06
1.11304e-07
3.16304e-07
3.69545e-06
5.94406e-07
3.63214e-06
2.3466e-06
-2.34335e-06
8.03333e-06
7.38238e-06
-1.55843e-06
1.72661e-05
4.3553e-05
-1.43768e-07
-1.91775e-07
-9.61221e-08
5.033e-08
9.18489e-08
1.05151e-07
5.61605e-08
1.84813e-08
2.70129e-08
4.26654e-08
9.75525e-08
9.9932e-08
1.24816e-07
9.1876e-08
1.01672e-07
6.42522e-08
7.84494e-08
4.22338e-08
5.60534e-08
1.21303e-08
8.83024e-09
-6.14484e-08
-9.922e-08
-2.09937e-07
-2.66073e-07
-3.88235e-07
-4.11579e-07
-4.74891e-07
-3.43452e-07
-4.75562e-07
-6.07202e-07
-1.14397e-06
-8.43687e-07
1.13638e-06
-1.64455e-06
-5.42207e-06
7.43335e-06
-5.53195e-06
-1.99537e-06
5.16971e-07
3.7572e-07
3.00851e-07
1.56282e-07
2.05646e-07
2.09942e-09
-1.46841e-08
-1.37687e-07
-2.2687e-07
-1.68327e-07
-1.92504e-07
-9.81716e-08
-1.35351e-07
-6.23839e-08
-1.14574e-07
-3.66716e-08
-7.01935e-08
5.74067e-08
4.03607e-08
1.44602e-07
3.04921e-08
3.27787e-07
7.4497e-07
7.89982e-07
-7.23576e-07
2.7416e-06
6.10885e-06
-2.47745e-06
-9.63439e-06
6.12105e-06
1.03936e-06
5.00292e-06
-4.77157e-06
-1.42492e-05
1.05878e-05
8.0093e-06
-5.80227e-06
4.96535e-07
1.59477e-05
-1.71076e-07
-1.08882e-07
-2.90364e-08
4.58771e-08
1.10211e-07
7.88334e-08
4.9745e-08
2.08549e-08
2.18036e-08
5.03234e-08
8.63893e-08
1.05386e-07
1.05713e-07
9.4088e-08
7.8468e-08
6.51134e-08
5.44656e-08
4.28597e-08
3.88693e-08
2.45425e-08
2.46266e-08
7.94009e-11
1.90721e-09
-3.60962e-08
-2.11704e-08
-6.67205e-08
-2.80335e-08
-2.71444e-08
1.7092e-07
2.23653e-07
1.89114e-08
-9.51531e-07
5.74073e-07
4.07799e-06
-3.35059e-06
-1.07921e-05
1.28801e-05
-3.98298e-06
-6.49397e-07
1.88071e-07
2.65739e-07
1.94385e-07
2.21853e-07
5.59213e-08
1.09199e-07
-5.15155e-08
-1.22342e-07
-1.67382e-07
-1.88384e-07
-1.52013e-07
-1.27382e-07
-9.56006e-08
-9.62395e-08
-8.53096e-08
-1.00439e-07
-7.31528e-08
-8.86461e-08
-7.85499e-08
-1.65343e-07
-1.62581e-07
-5.37673e-08
1.97978e-07
-1.54121e-07
-6.65888e-07
-9.0233e-08
7.56342e-07
3.3495e-07
6.56481e-07
2.76685e-06
6.06071e-07
2.83332e-06
2.27052e-06
-1.47024e-06
6.83532e-06
6.24316e-06
-1.93714e-06
1.49247e-05
3.14757e-05
3.3056e-08
-5.63607e-08
-2.27534e-08
8.77921e-08
9.04022e-08
8.71911e-08
4.00542e-08
1.72542e-08
1.22358e-08
5.71031e-08
7.47056e-08
1.12941e-07
8.99832e-08
9.77403e-08
6.07504e-08
6.9118e-08
3.58359e-08
5.03984e-08
1.74754e-08
3.07205e-08
-1.26056e-08
-1.68911e-08
-8.16505e-08
-1.21084e-07
-2.00362e-07
-2.66925e-07
-3.31392e-07
-3.78085e-07
-3.37578e-07
-4.26123e-07
-5.96429e-07
-1.01446e-06
-7.75692e-07
9.11611e-07
-1.46544e-06
-4.66734e-06
6.70064e-06
-5.18648e-06
-1.62992e-06
2.69425e-07
1.60596e-07
1.8642e-07
9.8869e-08
1.87965e-07
1.80781e-08
2.05945e-08
-1.07517e-07
-1.56658e-07
-2.04154e-07
-1.41582e-07
-1.42362e-07
-7.82689e-08
-1.0527e-07
-5.89868e-08
-9.6339e-08
-2.67234e-08
-5.54592e-08
3.58953e-08
-5.21206e-08
1.23843e-08
6.14666e-08
5.46743e-07
2.05496e-07
-6.28388e-07
8.2111e-07
3.52263e-06
-1.86609e-06
-6.14646e-06
3.68734e-06
1.71657e-06
3.90254e-06
-4.42192e-06
-1.40826e-05
9.56543e-06
7.81909e-06
-7.17698e-06
4.05001e-07
8.99723e-06
1.01661e-08
-2.27558e-08
6.65692e-08
6.79644e-08
1.05843e-07
6.63107e-08
3.97966e-08
1.43649e-08
2.46512e-08
4.24922e-08
8.53754e-08
8.37863e-08
9.85117e-08
6.56616e-08
7.05083e-08
3.87482e-08
4.61733e-08
2.21509e-08
3.00323e-08
1.33761e-08
1.84168e-08
6.02829e-09
8.962e-09
-2.9843e-09
8.81061e-09
-4.83346e-09
2.80034e-08
4.34153e-08
1.8167e-07
2.30668e-07
3.7293e-08
-7.16809e-07
6.27427e-07
3.9568e-06
-3.09617e-06
-1.04958e-05
1.2969e-05
-4.26401e-06
-2.62912e-07
1.32993e-07
1.52683e-07
1.12116e-07
1.81034e-07
4.76597e-08
1.33493e-07
-1.50218e-08
-7.49098e-08
-1.72762e-07
-1.64743e-07
-1.7585e-07
-9.9848e-08
-1.11848e-07
-5.33644e-08
-9.9166e-08
-4.25479e-08
-9.24057e-08
-2.40846e-08
-1.1124e-07
-9.56989e-08
-1.7557e-07
3.38849e-08
9.45467e-08
-1.26462e-07
-5.73076e-07
2.56102e-08
6.46094e-07
4.8112e-07
7.29312e-07
2.08537e-06
5.98079e-07
2.25674e-06
2.09522e-06
-7.1557e-07
5.59572e-06
5.26054e-06
-2.07952e-06
1.24483e-05
2.05939e-05
2.83618e-08
5.97355e-08
3.34626e-08
1.09842e-07
8.43507e-08
6.96796e-08
3.42815e-08
7.55424e-09
2.40909e-08
4.28057e-08
8.15732e-08
8.30121e-08
8.6529e-08
6.43929e-08
5.98699e-08
3.7641e-08
4.08261e-08
2.07515e-08
3.02365e-08
7.98204e-09
1.31525e-08
-1.91823e-08
-3.29717e-08
-8.56867e-08
-1.20844e-07
-1.92086e-07
-2.34901e-07
-3.00336e-07
-3.00645e-07
-3.98925e-07
-5.39552e-07
-8.96447e-07
-6.85559e-07
7.19185e-07
-1.23689e-06
-3.99117e-06
5.81631e-06
-4.7918e-06
-1.35465e-06
1.19251e-07
7.56063e-08
1.30305e-07
7.84533e-08
1.86117e-07
3.48789e-08
3.98777e-08
-7.14177e-08
-1.65428e-07
-1.89837e-07
-1.61972e-07
-1.26027e-07
-8.9736e-08
-7.88513e-08
-7.11041e-08
-6.83417e-08
-6.28045e-08
-4.75606e-08
-6.39691e-08
-7.69385e-08
-1.22134e-07
2.92027e-08
1.86316e-07
4.75256e-09
-7.8076e-07
1.47901e-07
1.65962e-06
-9.02117e-07
-3.70333e-06
1.80479e-06
1.44958e-06
2.71377e-06
-3.9251e-06
-1.41677e-05
8.53913e-06
7.46848e-06
-8.53382e-06
1.89771e-07
3.92262e-06
6.089e-08
3.00396e-08
1.01077e-07
7.17096e-08
9.59356e-08
5.61689e-08
3.01284e-08
1.8591e-08
1.64297e-08
5.03032e-08
5.51069e-08
8.42608e-08
5.65489e-08
6.90285e-08
3.41008e-08
4.69193e-08
1.69003e-08
3.13472e-08
7.67094e-09
2.12545e-08
2.99486e-09
1.51504e-08
1.42873e-09
1.54649e-08
9.02049e-09
2.76518e-08
3.3523e-08
7.416e-08
1.30199e-07
1.80419e-07
5.55737e-08
-4.7636e-07
6.10443e-07
3.95208e-06
-3.1217e-06
-9.90417e-06
1.30715e-05
-4.28247e-06
-4.28468e-08
7.60763e-08
9.9243e-08
8.20392e-08
1.57758e-07
4.36994e-08
1.45343e-07
2.48472e-08
-1.02374e-07
-1.39588e-07
-2.00311e-07
-1.39056e-07
-1.3617e-07
-6.13186e-08
-8.91879e-08
-3.40403e-08
-8.20849e-08
-2.02045e-08
-7.67558e-08
-3.41003e-08
-1.43659e-07
-6.2107e-08
-1.62606e-08
1.33744e-07
-1.76058e-07
-3.26744e-07
6.50666e-08
6.76632e-07
5.22022e-07
7.02174e-07
1.40934e-06
7.56449e-07
1.81936e-06
1.88849e-06
-1.70411e-07
4.52385e-06
4.09036e-06
-2.15789e-06
1.00592e-05
1.28857e-05
3.22683e-08
8.19288e-08
4.44837e-08
1.12179e-07
7.511e-08
6.18838e-08
2.27528e-08
1.57877e-08
1.79712e-08
4.77506e-08
6.13595e-08
6.85615e-08
6.05878e-08
5.17406e-08
3.9597e-08
3.36021e-08
2.29574e-08
2.43455e-08
1.40337e-08
1.95847e-08
4.27113e-09
5.05769e-09
-2.39662e-08
-3.9217e-08
-8.53775e-08
-1.18099e-07
-1.7807e-07
-2.20144e-07
-2.77057e-07
-3.37404e-07
-4.884e-07
-7.53162e-07
-5.71295e-07
5.58414e-07
-1.04151e-06
-3.14549e-06
5.01225e-06
-4.29217e-06
-1.14377e-06
6.40538e-08
4.01494e-08
1.02483e-07
6.2657e-08
1.85297e-07
6.18149e-08
1.68277e-08
-2.27523e-08
-1.76476e-07
-1.69948e-07
-1.78862e-07
-9.86118e-08
-1.03801e-07
-4.83112e-08
-8.11103e-08
-4.32946e-08
-7.68001e-08
-4.80331e-08
-9.92287e-08
-1.08721e-07
-1.41864e-07
-3.78556e-08
4.1785e-08
-1.5168e-07
-6.401e-07
-1.73006e-07
8.3091e-07
-3.59129e-07
-2.23447e-06
4.75982e-07
7.86121e-07
1.51459e-06
-3.96997e-06
-1.17171e-05
6.98711e-06
7.19955e-06
-9.19007e-06
5.9637e-07
9.24833e-07
5.90403e-08
3.96366e-08
1.05331e-07
6.99588e-08
8.94322e-08
4.59077e-08
2.84054e-08
1.01684e-08
2.49246e-08
2.70877e-08
5.60581e-08
4.21361e-08
5.75942e-08
3.07165e-08
4.35998e-08
1.66409e-08
3.07887e-08
7.52489e-09
2.10856e-08
1.90492e-09
1.29593e-08
-1.74526e-09
7.68798e-09
-3.28662e-10
1.19383e-08
9.96774e-09
2.83195e-08
3.82847e-08
7.29166e-08
1.0592e-07
4.92951e-08
-3.08724e-07
6.68394e-07
3.15608e-06
-3.19621e-06
-9.07449e-06
1.2589e-05
-4.19153e-06
1.03507e-07
4.20733e-08
7.7768e-08
5.85073e-08
1.4241e-07
5.61363e-08
1.35891e-07
5.61972e-08
-9.41768e-08
-1.46928e-07
-1.61879e-07
-1.55598e-07
-9.37955e-08
-8.50386e-08
-4.17373e-08
-6.37944e-08
-2.64635e-08
-5.87867e-08
-2.01561e-08
-8.05903e-08
-5.83689e-08
-8.3814e-08
6.37175e-08
5.87016e-08
-6.83607e-08
-2.21547e-07
1.9738e-07
5.89054e-07
5.49378e-07
5.04498e-07
1.00322e-06
8.03287e-07
1.54466e-06
1.59911e-06
3.91034e-07
3.502e-06
3.01043e-06
-2.1594e-06
8.00823e-06
7.90555e-06
3.14201e-08
8.09753e-08
4.7681e-08
1.06703e-07
6.81526e-08
4.2911e-08
2.31558e-08
8.67042e-09
2.50479e-08
3.54531e-08
4.84244e-08
4.68223e-08
4.20816e-08
3.64383e-08
2.83513e-08
2.2996e-08
1.85088e-08
1.33474e-08
1.56119e-08
8.29824e-09
1.26357e-08
-1.08851e-09
-3.87664e-09
-3.06605e-08
-4.73515e-08
-8.95268e-08
-1.22317e-07
-1.8325e-07
-2.23696e-07
-2.95416e-07
-4.04656e-07
-6.19065e-07
-4.36809e-07
3.61781e-07
-8.38637e-07
-2.34394e-06
4.17904e-06
-3.81618e-06
-9.75794e-07
4.75093e-08
2.23672e-08
8.32182e-08
6.42881e-08
1.7805e-07
5.46982e-08
3.03938e-08
-2.78317e-08
-1.29628e-07
-1.87201e-07
-1.16711e-07
-1.22325e-07
-4.68039e-08
-7.79147e-08
-2.59744e-08
-7.16108e-08
-2.85498e-08
-8.17566e-08
-6.15122e-08
-1.35878e-07
-9.33972e-08
-7.49442e-08
9.34808e-09
-1.95379e-07
-4.28501e-07
-2.1941e-07
4.51946e-07
-1.56753e-07
-1.35024e-06
-2.79379e-07
3.16854e-07
2.65454e-07
-2.95792e-06
-9.07318e-06
5.0709e-06
7.25321e-06
-9.25028e-06
7.50646e-07
-6.35542e-07
5.30564e-08
4.23648e-08
1.01226e-07
6.43934e-08
6.98141e-08
4.59987e-08
1.51975e-08
1.34918e-08
8.30355e-09
2.99469e-08
2.30664e-08
4.10004e-08
2.28988e-08
3.61522e-08
1.49676e-08
2.74057e-08
6.73593e-09
2.0103e-08
1.58966e-09
1.20841e-08
-4.59858e-09
2.031e-09
-1.11372e-08
-4.40714e-09
-1.3204e-08
-4.96629e-09
-1.07017e-08
3.58093e-10
4.69332e-09
4.50602e-08
1.84798e-09
-1.8476e-07
4.52815e-07
2.14265e-06
-2.78443e-06
-8.83112e-06
1.15813e-05
-3.86608e-06
2.13387e-07
3.37218e-08
5.99207e-08
5.11476e-08
1.3022e-07
3.73377e-08
1.43993e-07
5.44926e-08
-1.02701e-07
-1.18948e-07
-1.43858e-07
-1.11346e-07
-8.67927e-08
-5.00553e-08
-4.81143e-08
-2.55059e-08
-4.05928e-08
-1.59357e-08
-4.37792e-08
-2.65802e-08
-6.87727e-08
-9.69596e-11
3.87999e-08
9.96991e-08
-5.5945e-08
-5.27316e-08
1.91414e-07
5.46973e-07
4.33767e-07
4.20666e-07
6.95668e-07
8.30134e-07
1.31876e-06
1.38515e-06
6.08868e-07
2.69515e-06
2.03551e-06
-2.13546e-06
6.1663e-06
4.88615e-06
2.927e-08
7.63798e-08
4.57898e-08
9.51401e-08
6.15392e-08
2.83328e-08
1.48514e-08
1.33392e-08
1.7707e-08
2.98138e-08
3.19138e-08
3.04605e-08
2.899e-08
2.34455e-08
2.05482e-08
1.36093e-08
1.10227e-08
8.38799e-09
5.83604e-09
6.98173e-09
9.7875e-10
2.08401e-09
-1.13505e-08
-1.77592e-08
-4.33247e-08
-6.22608e-08
-1.04832e-07
-1.41376e-07
-1.93373e-07
-2.34679e-07
-3.43215e-07
-4.86817e-07
-3.46766e-07
2.54122e-07
-7.30339e-07
-1.584e-06
3.40552e-06
-3.25173e-06
-8.21997e-07
3.17582e-08
9.0435e-09
7.17256e-08
4.83028e-08
1.74026e-07
5.57932e-08
6.49375e-10
2.45506e-08
-1.39097e-07
-1.0854e-07
-1.22529e-07
-5.185e-08
-6.85402e-08
-1.34539e-08
-5.06826e-08
-7.11443e-09
-5.18194e-08
-1.85004e-08
-7.8813e-08
-5.40499e-08
-9.07949e-08
-5.07739e-09
-3.18511e-08
-1.02638e-07
-2.79231e-07
-1.04294e-07
2.18728e-07
-1.35933e-08
-8.47774e-07
-4.43349e-07
-9.19113e-08
2.50984e-08
-2.10374e-06
-6.05032e-06
3.77236e-06
6.03022e-06
-8.84261e-06
1.20654e-06
-1.02019e-06
4.81513e-08
4.24199e-08
9.47476e-08
5.92674e-08
5.77907e-08
4.13747e-08
1.29093e-08
-2.24876e-09
1.25963e-08
7.38103e-09
2.38689e-08
1.33551e-08
2.73077e-08
1.01169e-08
2.27489e-08
2.54191e-09
1.55554e-08
-2.89941e-10
1.09678e-08
-4.77905e-09
1.20736e-09
-1.48761e-08
-1.24822e-08
-2.60129e-08
-2.37227e-08
-3.64529e-08
-3.4713e-08
-4.69981e-08
-3.35738e-08
-2.05369e-08
-3.53926e-08
-1.91525e-07
1.94343e-07
1.28939e-06
-2.69891e-06
-7.16572e-06
1.01348e-05
-3.41616e-06
2.67233e-07
1.7898e-08
5.18398e-08
3.63147e-08
1.18071e-07
3.83587e-08
1.27297e-07
8.1377e-08
-9.38892e-08
-7.31594e-08
-9.24252e-08
-8.07328e-08
-5.14935e-08
-3.54328e-08
-1.65757e-08
-1.81021e-08
-4.16741e-09
-1.47263e-08
-1.97181e-09
-2.39426e-08
-3.91755e-09
1.18527e-08
8.84322e-08
7.66563e-08
2.89859e-08
3.86362e-10
2.25284e-07
4.21859e-07
3.83672e-07
3.3075e-07
5.39159e-07
7.86958e-07
1.1762e-06
1.14975e-06
7.48953e-07
2.10373e-06
1.16271e-06
-2.03853e-06
4.72836e-06
3.05722e-06
2.75251e-08
7.03376e-08
4.48778e-08
8.64879e-08
5.40964e-08
9.97311e-09
1.03462e-08
9.11462e-09
1.39472e-08
2.07046e-08
2.00886e-08
2.19409e-08
1.63941e-08
2.03373e-08
4.79437e-09
9.60382e-09
2.89766e-09
3.1314e-09
-2.91395e-10
-1.64372e-09
-3.17656e-09
-9.22211e-09
-1.28132e-08
-2.55178e-08
-3.72132e-08
-6.04556e-08
-8.64872e-08
-1.23355e-07
-1.55503e-07
-1.97815e-07
-2.83169e-07
-3.97588e-07
-2.58327e-07
1.20312e-07
-6.61112e-07
-8.25226e-07
2.6828e-06
-2.70263e-06
-6.6636e-07
2.5412e-08
1.23272e-09
5.94677e-08
4.73955e-08
1.61714e-07
4.75914e-08
2.19436e-08
3.53943e-08
-5.93215e-08
-9.65482e-08
-5.01297e-08
-6.0153e-08
-5.20677e-09
-2.83862e-08
1.4161e-08
-2.00828e-08
1.60358e-08
-2.63647e-08
7.38397e-10
-4.24958e-08
7.22154e-09
-2.14298e-09
3.92567e-08
-6.50247e-08
-9.02148e-08
-4.74654e-08
1.87666e-07
4.2697e-09
-4.19857e-07
-4.33939e-07
-6.35327e-08
9.99113e-09
-1.17433e-06
-3.43127e-06
2.4064e-06
4.30346e-06
-7.47107e-06
1.37808e-06
-1.08903e-06
4.27193e-08
4.10837e-08
8.82126e-08
4.89042e-08
4.16611e-08
3.97675e-08
-2.70596e-09
-7.50091e-10
-2.05446e-09
9.83899e-09
5.7651e-09
1.67282e-08
1.09944e-08
9.72129e-09
1.21989e-09
6.97131e-09
-8.02711e-09
7.11504e-09
-3.76527e-09
3.7001e-09
-1.07567e-08
-1.09469e-08
-2.67449e-08
-2.89222e-08
-4.36118e-08
-4.66124e-08
-6.28443e-08
-6.37338e-08
-7.07541e-08
-4.98285e-08
-9.76436e-08
-1.97638e-07
1.33017e-09
6.01887e-07
-2.14381e-06
-5.08888e-06
7.87108e-06
-2.89677e-06
3.0509e-07
1.60587e-08
4.0975e-08
3.24529e-08
1.05301e-07
2.18463e-08
1.33784e-07
7.89305e-08
-5.32614e-08
-3.38215e-08
-5.24958e-08
-4.81652e-08
-2.61398e-08
-1.23743e-08
4.29163e-09
8.68355e-09
1.56681e-08
1.64634e-08
1.7658e-08
1.69362e-08
2.53964e-08
5.95416e-08
9.69578e-08
1.01896e-07
5.99034e-08
6.45643e-08
2.05964e-07
3.42718e-07
3.18262e-07
2.91216e-07
4.39902e-07
7.23541e-07
1.0104e-06
9.71662e-07
7.30687e-07
1.64301e-06
5.52016e-07
-1.75536e-06
3.56563e-06
1.94457e-06
2.38513e-08
6.41726e-08
3.76529e-08
7.65369e-08
4.60324e-08
-7.23038e-09
8.92048e-09
4.61761e-09
1.1754e-08
1.21219e-08
1.65182e-08
1.48611e-08
1.11171e-08
4.49833e-09
-4.62711e-11
-1.48613e-08
1.48646e-08
-1.42312e-08
2.27091e-11
-5.80451e-09
-6.70094e-09
-1.38482e-08
-2.02414e-08
-2.9754e-08
-4.15039e-08
-5.83671e-08
-8.01465e-08
-1.05939e-07
-1.31633e-07
-1.67189e-07
-2.43955e-07
-3.18901e-07
-2.1418e-07
3.60588e-08
-6.03586e-07
-2.71511e-07
1.95212e-06
-2.15106e-06
-5.14747e-07
1.58987e-08
-6.12865e-09
5.13558e-08
3.39685e-08
1.52747e-07
4.88432e-08
2.68201e-08
7.90437e-08
-4.54866e-08
-3.66135e-08
-5.11519e-08
-1.16049e-08
-1.45887e-08
2.218e-08
7.76852e-09
3.60543e-08
1.43181e-08
3.68703e-08
9.6585e-09
3.87603e-08
2.54318e-08
7.29893e-08
4.31749e-08
3.46768e-08
-1.30556e-08
6.5781e-08
1.36611e-07
9.08373e-08
-1.93959e-07
-2.25397e-07
-1.74145e-09
1.48457e-07
-4.92365e-07
-1.92732e-06
1.45138e-06
2.5235e-06
-6.3135e-06
1.65037e-06
-7.41594e-07
3.80775e-08
3.66226e-08
8.03907e-08
4.06674e-08
2.97424e-08
3.7715e-08
-6.09607e-09
-8.74061e-09
-1.08884e-09
1.38532e-09
9.54922e-09
5.06997e-09
9.48031e-09
-7.84545e-09
-1.71167e-08
2.04914e-08
-1.8399e-08
-3.75861e-09
-1.40969e-08
-4.68938e-09
-3.93867e-09
-1.6078e-08
-2.35494e-08
-3.83776e-08
-4.51309e-08
-5.94629e-08
-6.63911e-08
-7.97014e-08
-7.65295e-08
-8.44902e-08
-1.17726e-07
-2.07449e-07
-7.65917e-08
2.92246e-07
-1.47196e-06
-3.04599e-06
6.00274e-06
-2.37031e-06
2.44188e-07
5.95142e-09
3.67656e-08
2.17592e-08
9.27626e-08
2.3485e-08
1.24696e-07
9.92303e-08
-3.03003e-08
3.6721e-09
-2.89271e-08
-2.42362e-08
-1.86935e-08
9.04079e-09
1.43146e-08
3.45376e-08
3.10805e-08
4.48275e-08
3.76779e-08
5.09129e-08
5.23191e-08
9.00487e-08
1.07556e-07
1.16776e-07
8.50704e-08
1.00495e-07
1.85367e-07
2.76161e-07
2.68185e-07
2.58014e-07
3.74822e-07
6.20267e-07
8.39009e-07
7.49115e-07
6.29822e-07
1.28861e-06
1.41898e-07
-1.42977e-06
2.73297e-06
1.29757e-06
2.05326e-08
5.69823e-08
3.23976e-08
6.74065e-08
3.83661e-08
-1.60158e-08
4.5495e-09
3.64275e-09
6.26382e-09
1.14435e-08
1.05126e-08
1.43762e-08
-5.26181e-09
-1.66161e-08
1.52983e-08
-8.50179e-09
6.11216e-09
-3.44705e-08
-9.23405e-09
-1.96622e-08
-1.33204e-08
-1.45456e-08
-2.42445e-08
-3.26785e-08
-4.50762e-08
-5.76147e-08
-7.52431e-08
-9.30076e-08
-1.14264e-07
-1.47085e-07
-2.09178e-07
-2.60878e-07
-1.60836e-07
-3.65202e-08
-5.20141e-07
9.62917e-08
1.37833e-06
-1.66289e-06
-3.90661e-07
1.25403e-08
-9.65037e-09
4.18833e-08
3.3534e-08
1.38698e-07
4.59899e-08
4.72779e-08
8.47787e-08
-3.02405e-09
-3.09028e-08
-2.45352e-08
-1.79021e-08
9.25414e-09
1.97514e-08
3.86564e-08
3.93948e-08
5.07652e-08
4.60736e-08
5.53115e-08
5.58758e-08
7.86105e-08
8.26411e-08
8.7663e-08
6.3212e-08
7.10343e-08
9.91863e-08
1.54268e-07
1.11592e-07
-1.96342e-08
-7.10782e-08
9.48537e-08
2.10418e-07
-1.74623e-07
-1.07529e-06
9.09826e-07
8.23689e-07
-4.86928e-06
1.71647e-06
-3.61397e-07
3.28915e-08
3.18292e-08
7.23573e-08
2.90451e-08
2.12491e-08
3.20475e-08
-1.09057e-08
-1.03551e-08
-3.25466e-09
1.72599e-09
7.78187e-09
-7.31489e-10
-1.09351e-08
7.53877e-09
-9.50322e-09
2.12651e-08
-3.35106e-08
-8.86732e-09
-4.82505e-08
-1.51744e-08
-2.28662e-08
-1.81241e-08
-2.68112e-08
-3.70058e-08
-4.88196e-08
-5.80599e-08
-6.95125e-08
-7.68377e-08
-8.41826e-08
-9.31865e-08
-1.33375e-07
-1.75447e-07
-8.65845e-08
1.94312e-07
-9.9285e-07
-1.1572e-06
4.14787e-06
-1.87868e-06
1.92311e-07
6.6708e-09
2.9251e-08
1.96851e-08
8.04288e-08
1.4087e-08
1.24985e-07
9.41053e-08
-5.23082e-09
1.74223e-08
-1.25433e-08
-2.31867e-08
-7.71063e-09
6.5315e-09
3.01293e-08
3.78065e-08
5.15609e-08
5.2174e-08
6.10613e-08
6.20746e-08
7.82898e-08
9.4551e-08
1.18207e-07
1.1387e-07
1.04379e-07
1.09432e-07
1.67529e-07
2.1823e-07
2.24289e-07
2.22139e-07
3.15732e-07
4.99834e-07
6.3928e-07
5.32201e-07
5.50914e-07
9.71371e-07
-1.0785e-07
-1.02208e-06
2.10993e-06
9.1622e-07
1.61691e-08
5.00224e-08
2.30119e-08
5.87278e-08
2.91379e-08
-2.06529e-08
2.24569e-09
2.25752e-09
4.33134e-09
9.13542e-09
9.10729e-09
2.73705e-09
-4.23023e-10
-6.33374e-09
2.01145e-08
-9.468e-09
-5.29983e-09
-4.56929e-08
-1.94318e-08
-3.96999e-08
-3.00762e-08
-2.64433e-08
-2.6925e-08
-3.51683e-08
-4.49547e-08
-5.66953e-08
-6.88406e-08
-8.35708e-08
-1.00783e-07
-1.32392e-07
-1.77361e-07
-2.08604e-07
-1.17048e-07
-1.12753e-07
-3.99616e-07
2.81233e-07
8.71422e-07
-1.25068e-06
-2.94175e-07
6.37387e-09
-1.38631e-08
3.57963e-08
2.41138e-08
1.27548e-07
4.69308e-08
4.89912e-08
1.00031e-07
2.99027e-09
-1.58327e-08
-2.57252e-08
-1.37456e-08
7.68052e-09
2.69432e-08
4.16719e-08
5.10199e-08
5.72375e-08
6.1471e-08
6.61859e-08
7.5121e-08
8.86175e-08
9.6795e-08
9.32722e-08
8.8625e-08
9.74984e-08
1.23492e-07
1.46424e-07
1.29231e-07
6.2201e-08
3.90492e-08
1.34199e-07
1.9821e-07
-5.79562e-08
-5.19841e-07
5.13624e-07
-1.10921e-07
-3.65701e-06
1.63949e-06
1.87589e-08
2.85025e-08
2.58865e-08
6.33644e-08
2.09738e-08
1.58502e-08
2.8394e-08
-1.25009e-08
-9.60379e-09
-4.0023e-09
2.05865e-09
5.07043e-09
-5.05967e-09
1.23149e-09
8.33534e-09
9.6001e-09
-3.46415e-09
-1.80142e-08
-1.54997e-08
-3.82946e-08
-4.05667e-08
-3.97703e-08
-2.4181e-08
-2.71109e-08
-3.59637e-08
-4.61633e-08
-5.57536e-08
-6.47002e-08
-7.33554e-08
-8.22194e-08
-9.81389e-08
-1.2565e-07
-1.45592e-07
-5.88722e-08
7.25221e-08
-5.50955e-07
-1.64243e-07
2.75711e-06
-1.37088e-06
1.14553e-07
-6.97804e-11
2.66734e-08
1.18666e-08
6.96332e-08
1.62293e-08
1.13893e-07
1.00058e-07
5.98779e-09
2.7446e-08
-6.13669e-09
-2.09107e-08
-1.06861e-08
8.89588e-09
2.8014e-08
4.2695e-08
5.18449e-08
5.85215e-08
6.29394e-08
6.954e-08
7.9318e-08
9.41381e-08
1.07829e-07
1.08362e-07
1.01671e-07
1.09282e-07
1.39906e-07
1.71926e-07
1.78807e-07
1.84775e-07
2.53116e-07
3.73916e-07
4.49112e-07
3.74689e-07
4.86376e-07
6.99036e-07
-2.26444e-07
-6.65708e-07
1.6328e-06
7.10084e-07
1.30008e-08
4.26441e-08
1.70816e-08
5.03465e-08
2.34783e-08
-2.20414e-08
2.80044e-09
-3.47784e-10
3.65456e-09
6.48515e-09
5.82795e-09
-2.35864e-11
-3.19129e-09
1.3489e-08
6.03985e-09
-4.1421e-09
-9.06257e-09
-1.91237e-08
-3.44016e-08
-5.37875e-08
-2.94021e-08
-3.47452e-08
-2.95418e-08
-3.38177e-08
-4.28593e-08
-5.24454e-08
-6.26329e-08
-7.421e-08
-9.09201e-08
-1.1676e-07
-1.48915e-07
-1.61218e-07
-1.0247e-07
-1.65625e-07
-2.83808e-07
2.99931e-07
5.11262e-07
-9.09786e-07
-2.36955e-07
4.51677e-09
-1.52758e-08
2.85734e-08
2.41077e-08
1.13563e-07
4.22354e-08
5.6804e-08
9.40431e-08
1.70889e-08
-1.36308e-08
-2.33017e-08
-1.49599e-08
5.21227e-09
2.48336e-08
3.95188e-08
4.96442e-08
5.59236e-08
6.10971e-08
6.61326e-08
7.4063e-08