/*--------------------------------*- C++ -*----------------------------------*\
| =========                 |                                                 |
| \\      /  F ield         | OpenFOAM: The Open Source CFD Toolbox           |
|  \\    /   O peration     | Version:  2312                                  |
|   \\  /    A nd           | Website:  www.openfoam.com                      |
|    \\/     M anipulation  |                                                 |
\*---------------------------------------------------------------------------*/
FoamFile
{
    version     2.0;
    format      ascii;
    arch        "LSB;label=32;scalar=64";
    class       volScalarField;
    location    "350";
    object      magR;
}
// * * * * * * * * * * * * * * * * * * * * * * * * * * * * * * * * * * * * * //

dimensions      [0 2 -2 0 0 0 0];

internalField   nonuniform List<scalar> 
10720
(
0.0235392
0.0274636
0.0324787
0.0392909
0.047362
0.0576359
0.0707727
0.0870463
0.10771
0.134075
0.168136
0.213107
0.273436
0.356437
0.474582
0.647463
0.913718
1.32398
2.04437
3.1656
5.69322
9.51362
22.2763
43.4772
48.1767
46.0902
45.2899
46.1172
47.1438
47.4043
46.7771
45.3816
43.1257
40.0386
36.0521
31.2599
24.7559
18.2959
4.26427
0.0200331
0.0171893
0.0140015
0.0112676
0.0086861
0.00635955
0.0044807
0.0033519
0.00350612
0.00474322
0.00705471
0.0106242
0.0158794
0.0234966
0.0343375
0.0497138
0.0718224
0.104781
0.156202
0.239894
0.383317
0.637008
1.12095
2.05252
4.08349
8.35078
18.6647
38.4609
54.5021
61.386
63.3388
63.6584
63.2918
62.3965
61.0183
59.2329
56.621
53.5793
43.8848
0.00360474
0.00358445
0.00354309
0.00344055
0.00328201
0.0030998
0.00288485
0.00264317
0.00240401
0.00216952
0.00194596
0.00179069
0.00176937
0.00194404
0.00252478
0.00397293
0.00759242
0.0159206
0.0384928
0.0944047
0.278743
0.768991
2.35555
7.57793
14.8684
22.3898
29.4548
34.4495
35.4373
32.5096
27.7034
22.8399
18.8961
15.8736
13.5517
11.7098
10.4226
9.08017
9.75044
0.00357224
0.00352407
0.00342532
0.00327888
0.00307847
0.00281407
0.00250375
0.00220272
0.00192414
0.00164765
0.00138455
0.00115677
0.000964335
0.000801125
0.000662821
0.000546305
0.000447475
0.000363862
0.000290611
0.000223738
0.000157665
9.31623e-05
3.22836e-05
5.26547e-06
1.34148e-05
0.00191606
0.0103737
0.0836471
0.28173
0.551398
0.82435
1.0646
1.26666
1.44419
1.61008
1.78077
1.96127
2.36376
3.28777
0.00241982
0.00240072
0.00234658
0.00226379
0.00217721
0.00208206
0.00198585
0.00189934
0.00182493
0.00176721
0.00172259
0.001697
0.00169023
0.00170518
0.0017092
0.00166171
0.00142964
0.00126142
0.00029986
0.00776237
0.015924
0.00779406
0.00191395
0.0368207
0.247376
0.807453
2.0253
4.55858
9.02485
14.9092
20.223
22.832
22.3185
20.0391
17.3859
14.8948
12.943
10.7151
12.0402
0.00243866
0.00243564
0.00242916
0.00238589
0.00230914
0.00218029
0.00200266
0.00179984
0.00161137
0.00141751
0.0012089
0.0010069
0.000826113
0.000670434
0.0005419
0.000438116
0.00035723
0.000295877
0.00025125
0.00021919
0.000197104
0.000182771
0.000174903
0.000170576
0.000170352
0.000169184
0.00017994
0.000106716
0.000756611
0.00502219
0.0142331
0.0299781
0.0675751
0.141395
0.250392
0.383856
0.52893
0.633147
1.08069
0.00204218
0.0020464
0.00203611
0.00201915
0.00198416
0.00193208
0.00186715
0.0017861
0.00169346
0.00159099
0.00148089
0.00136467
0.00124348
0.00111953
0.000993768
0.000862366
0.000729499
0.000615337
0.000474998
0.000253201
2.89856e-05
0.000984247
0.00247798
0.00986862
0.0291791
0.0542771
0.0113518
0.0117249
0.0509627
0.445184
1.95786
5.33541
10.0011
13.8763
15.5448
15.3192
14.4061
12.6086
13.5787
0.00202027
0.00198709
0.001935
0.00187226
0.0017936
0.00169058
0.00157031
0.00144233
0.00130908
0.00116445
0.00101498
0.000874839
0.000751028
0.000644325
0.000554168
0.000478585
0.000416401
0.000365755
0.000325106
0.000292013
0.000265121
0.000242534
0.000222292
0.000201004
0.00017913
0.000160942
0.000147193
0.000137312
0.000125329
0.000109896
8.25188e-05
5.20203e-05
0.000415263
0.000705769
0.00263415
0.0141475
0.0465797
0.117916
0.429226
0.00153212
0.00152942
0.00151747
0.00149617
0.00146322
0.00141854
0.00136454
0.00130204
0.00123307
0.00116187
0.00109071
0.00102246
0.000960159
0.000905713
0.000860434
0.000822339
0.000782685
0.000732616
0.000684648
0.000618275
0.000404141
6.95344e-05
1.91964e-05
4.27467e-06
0
0
0.00376498
0.0110426
0.0331388
0.0157686
0.0355812
0.0648681
0.410685
2.39947
6.15862
9.9779
12.3903
12.8418
14.2936
0.00152815
0.00151734
0.00149582
0.00146136
0.00141277
0.00134392
0.00126155
0.0011731
0.00107879
0.000975282
0.000867597
0.000762226
0.000663268
0.000572443
0.00049097
0.000419367
0.000357808
0.000306021
0.000263404
0.000228658
0.000200608
0.000177736
0.000158418
0.000139992
0.000121266
0.000103972
9.02364e-05
8.074e-05
7.65743e-05
7.07194e-05
8.65901e-05
2.03324e-05
0.000134669
0.000659481
0.000180627
0.000601814
0.00164548
0.00386937
0.0832489
0.00125582
0.00126118
0.00126067
0.00125617
0.00124383
0.00122383
0.00119705
0.00116242
0.00112066
0.0010729
0.00101955
0.000961871
0.000901224
0.000838684
0.000775361
0.000709715
0.000638279
0.000564718
0.000496306
0.00043692
0.000385595
0.000327687
0.000220973
5.51053e-05
1.26062e-05
6.13088e-06
1.45442e-06
0
0
0.00217418
0.00848643
0.0451523
0.00812863
0.1111
0.243962
2.28361
6.37196
10.2685
13.6398
0.00124444
0.00122871
0.00120584
0.00117565
0.00113691
0.00108598
0.00102736
0.000964463
0.000896074
0.000820472
0.000741296
0.000662489
0.000587075
0.000516811
0.000452918
0.000396193
0.000346885
0.000304854
0.000269609
0.000240245
0.000215734
0.000194777
0.000175931
0.000157178
0.000137706
0.000119166
0.000102994
8.94587e-05
7.81055e-05
6.86634e-05
6.05561e-05
5.31671e-05
4.23005e-05
2.99893e-05
1.67143e-05
7.60299e-05
0.000280629
0.000884043
0.0094783
0.00101588
0.00102034
0.00102105
0.00101847
0.00101036
0.000996311
0.000976665
0.000950842
0.000919069
0.000882224
0.000840937
0.000796241
0.000749513
0.000702083
0.000655059
0.00061001
0.000569176
0.000531153
0.000492286
0.000452023
0.000413657
0.000376746
0.000344971
0.000293778
0.000205488
0.000108404
2.18599e-05
6.64593e-06
3.86078e-06
4.60204e-07
0
0
0.00102038
0.0350979
0.0266288
0.156882
1.04714
5.23769
10.9443
0.00100754
0.000996241
0.000979809
0.00095718
0.000927827
0.00089016
0.000847832
0.000801694
0.000750885
0.000695171
0.000636612
0.00057742
0.000519388
0.000463754
0.000411558
0.000363632
0.000320439
0.000282258
0.000249088
0.000220538
0.00019606
0.000174834
0.000155814
0.000137536
0.000119234
0.000101891
8.66465e-05
7.38155e-05
6.31335e-05
5.44608e-05
4.79746e-05
4.37732e-05
4.13898e-05
3.81089e-05
2.74301e-05
8.23124e-06
1.45486e-06
7.76063e-08
0.000279337
0.000841988
0.000847736
0.000851149
0.000852525
0.000850191
0.000843814
0.000833649
0.000818949
0.000799711
0.000776345
0.000748816
0.000717658
0.000683484
0.000646854
0.00060842
0.000568967
0.000528
0.000484471
0.000440357
0.000398636
0.000361906
0.000331863
0.00030915
0.000292328
0.000268094
0.000227638
0.00017498
0.000115701
7.04282e-05
7.25916e-06
3.73658e-06
1.67051e-07
0
0
0.00384521
0.0663713
0.121773
1.19156
6.55825
0.000833352
0.000822943
0.000808992
0.000790475
0.000767273
0.00073852
0.000707108
0.000672483
0.000634142
0.000592548
0.000548635
0.000503781
0.000459092
0.000415405
0.000373573
0.000334407
0.0002984
0.000265985
0.000237322
0.000212246
0.000190354
0.000171031
0.000153437
0.000136468
0.000119547
0.000103401
8.89172e-05
7.6343e-05
6.5415e-05
5.589e-05
4.77001e-05
4.06883e-05
3.46849e-05
2.95196e-05
2.57856e-05
2.15197e-05
1.57506e-05
1.83127e-06
1.92058e-05
0.000702363
0.000707899
0.000711932
0.00071445
0.000714358
0.000711293
0.000705326
0.000695798
0.000682625
0.000665928
0.000645655
0.000622092
0.000595654
0.000566766
0.000536057
0.000504018
0.000471383
0.00043942
0.00040824
0.000377806
0.000348653
0.000322161
0.000298592
0.00027717
0.000255683
0.000230665
0.000203368
0.000176615
0.000150717
0.000110317
7.31436e-05
3.35543e-06
1.91037e-06
0
0
0
0.0382831
0.162581
2.60968
0.000694777
0.000685994
0.000674645
0.000659574
0.000641198
0.000619012
0.000595097
0.000568608
0.000539318
0.00050783
0.000474585
0.000440369
0.000405845
0.000371525
0.000338005
0.000305896
0.000275681
0.000247759
0.000222382
0.000199585
0.000179197
0.000160829
0.000143893
0.000127649
0.000111692
9.64874e-05
8.27668e-05
7.08076e-05
6.04555e-05
5.15332e-05
4.40011e-05
3.79091e-05
3.32646e-05
3.00296e-05
2.81667e-05
2.84469e-05
3.05116e-05
3.24871e-05
1.22285e-06
0.000592113
0.000597538
0.000602064
0.000605565
0.000607193
0.000606772
0.000604242
0.000599042
0.000591087
0.000580372
0.000566721
0.000550268
0.000531207
0.00050975
0.000486238
0.00046101
0.000434589
0.000406931
0.000378228
0.000349708
0.000322868
0.000298897
0.000277922
0.000257946
0.000236348
0.0002121
0.000187591
0.000166574
0.000150317
0.000136997
0.000124007
9.00933e-05
3.79512e-05
3.31866e-06
0
0
5.21565e-06
0.00301362
0.68083
0.000585166
0.000577513
0.000567976
0.000555447
0.000540633
0.000523318
0.000504685
0.00048406
0.000461466
0.000437341
0.000411906
0.000385629
0.000358853
0.000331852
0.000305062
0.000278935
0.000253837
0.000230175
0.000208202
0.000188048
0.000169673
0.00015284
0.000137149
0.000122106
0.000107406
9.33869e-05
8.06233e-05
6.93628e-05
5.94937e-05
5.08543e-05
4.33831e-05
3.70483e-05
3.17613e-05
2.7607e-05
2.45695e-05
2.39497e-05
2.35759e-05
3.97294e-05
1.6494e-05
0.000502719
0.000507799
0.000512354
0.000516199
0.000518663
0.00051968
0.000519077
0.000516466
0.000511676
0.000504675
0.00049525
0.000483433
0.000469295
0.000452927
0.000434569
0.000414495
0.000393006
0.000370591
0.000347757
0.000324957
0.000302917
0.000282227
0.000263144
0.000244588
0.000224385
0.000201531
0.00017772
0.000156344
0.000139342
0.000127141
0.000118175
0.000112808
9.87503e-05
5.729e-05
3.78986e-06
0
0
0.00360298
0.175587
0.000496497
0.000489872
0.00048187
0.000471382
0.000459299
0.000445624
0.00043085
0.000414554
0.000396946
0.000378283
0.000358629
0.000338284
0.000317433
0.000296195
0.000274814
0.000253605
0.000232843
0.00021284
0.000193868
0.000176082
0.000159507
0.000144041
0.000129442
0.000115398
0.000101729
8.86925e-05
7.67318e-05
6.6086e-05
5.67076e-05
4.84902e-05
4.14009e-05
3.54501e-05
3.06348e-05
2.70229e-05
2.4553e-05
2.42456e-05
2.41274e-05
3.42627e-05
4.26983e-05
0.000429707
0.00043444
0.000438885
0.000442842
0.000445814
0.000447746
0.000448494
0.0004477
0.000445236
0.000441034
0.000434882
0.000426759
0.000416657
0.000404599
0.000390701
0.000375125
0.000358105
0.000339989
0.000320909
0.000301284
0.00028198
0.000263654
0.000246475
0.000229694
0.000211689
0.000191484
0.000170111
0.000150106
0.000133255
0.000119803
0.000108913
0.000101867
9.85012e-05
9.48605e-05
6.18975e-05
3.0388e-06
0
0.00100236
0.0607902
0.000424139
0.000418335
0.000411557
0.000402722
0.000392762
0.000381796
0.000369923
0.000356901
0.000343037
0.000328434
0.000313122
0.000297275
0.000280965
0.000264198
0.000247141
0.000229979
0.000212878
0.000196093
0.000179833
0.000164283
0.000149526
0.000135531
0.000122151
0.000109204
9.66292e-05
8.4618e-05
7.35209e-05
6.35523e-05
5.47033e-05
4.68988e-05
4.01061e-05
3.43321e-05
2.95484e-05
2.58219e-05
2.31772e-05
2.24899e-05
2.27372e-05
2.92271e-05
4.66927e-05
0.000369354
0.000373711
0.000377937
0.00038183
0.000385001
0.000387423
0.000388984
0.000389356
0.000388427
0.000386126
0.000382249
0.000376753
0.000369582
0.000360699
0.000350168
0.000338086
0.000324588
0.000309974
0.000294469
0.000278367
0.000262195
0.000246438
0.000231203
0.000216016
0.000199804
0.000181849
0.000162873
0.000144789
0.000129113
0.000115988
0.000104815
9.55257e-05
8.90524e-05
8.66097e-05
9.12263e-05
4.65491e-05
7.17541e-08
0.000318601
0.0201696
0.000364399
0.000359301
0.000353509
0.000346038
0.000337761
0.000328841
0.00031919
0.00030868
0.000297653
0.000286131
0.000274104
0.000261663
0.000248833
0.000235581
0.000221954
0.00020807
0.000194032
0.000180013
0.000166177
0.000152677
0.000139616
0.000127012
0.000114806
0.000102924
9.13661e-05
8.03022e-05
7.00063e-05
6.06746e-05
5.23311e-05
4.49331e-05
3.84664e-05
3.29536e-05
2.83948e-05
2.48574e-05
2.23678e-05
2.1633e-05
2.19403e-05
2.69065e-05
4.29083e-05
0.000319056
0.000323034
0.000326995
0.000330735
0.000333945
0.000336637
0.000338683
0.000339812
0.000339943
0.000338983
0.00033677
0.000333225
0.000328299
0.00032193
0.000314122
0.000304916
0.000294383
0.000282756
0.000270183
0.000256836
0.000243111
0.000229492
0.000216074
0.000202522
0.000188071
0.000172185
0.000155391
0.000139178
0.000124855
0.000112635
0.000102098
9.29108e-05
8.51944e-05
7.94803e-05
7.82269e-05
9.34346e-05
1.2593e-07
3.26413e-05
0.00511467
0.000314628
0.000310153
0.000305151
0.000298806
0.000291885
0.00028453
0.00027659
0.000268055
0.000259198
0.000250021
0.000240492
0.000230671
0.000220535
0.000210012
0.000199125
0.000187907
0.000176402
0.000164735
0.000153024
0.000141385
0.00012991
0.000118654
0.000107613
9.6792e-05
8.6236e-05
7.60917e-05
6.65893e-05
5.79009e-05
5.00716e-05
4.30862e-05
3.69416e-05
3.16657e-05
2.72586e-05
2.37864e-05
2.12876e-05
2.04287e-05
2.06108e-05
2.49119e-05
3.85938e-05
0.000276798
0.000280404
0.000284085
0.000287606
0.000290749
0.000293545
0.000295842
0.000297438
0.000298265
0.000298227
0.000297189
0.000295079
0.00029182
0.000287344
0.000281619
0.000274664
0.000266522
0.000257317
0.000247216
0.000236334
0.000224881
0.000213275
0.0002016
0.000189621
0.000176816
0.000162798
0.000147945
0.000133422
0.00012035
0.000109035
9.92065e-05
9.06651e-05
8.31733e-05
7.75504e-05
6.97921e-05
8.75561e-05
4.41411e-05
4.86174e-07
0.000370883
0.000272831
0.000268894
0.000264555
0.000259129
0.000253305
0.00024717
0.000240584
0.000233595
0.000226424
0.000219054
0.000211452
0.000203638
0.00019558
0.000187201
0.000178475
0.000169413
0.00016001
0.00015033
0.000140451
0.000130464
0.000120455
0.000110485
0.000100575
9.07627e-05
8.11444e-05
7.18709e-05
6.31265e-05
5.50611e-05
4.77351e-05
4.11555e-05
3.5332e-05
3.03007e-05
2.60728e-05
2.27183e-05
2.02745e-05
1.93455e-05
1.9414e-05
2.30481e-05
3.48096e-05
0.00024104
0.000244309
0.000247699
0.000250978
0.000254001
0.000256784
0.000259197
0.000261069
0.000262346
0.000262942
0.000262734
0.000261653
0.000259634
0.000256596
0.000252515
0.000247365
0.00024116
0.00023396
0.000225925
0.000217093
0.000207582
0.000197734
0.000187646
0.000177163
0.000165909
0.000153605
0.000140528
0.000127581
0.000115704
0.000105254
9.60815e-05
8.81057e-05
8.10816e-05
7.58881e-05
6.90743e-05
6.99881e-05
8.29025e-05
1.65998e-07
2.62243e-05
0.000237497
0.000234009
0.000230233
0.000225569
0.000220641
0.000215472
0.00020996
0.000204194
0.000198338
0.000192372
0.000186257
0.000180008
0.000173574
0.000166867
0.000159862
0.000152522
0.000144837
0.000136823
0.000128525
0.000120003
0.00011132
0.000102539
9.36968e-05
8.48658e-05
7.61554e-05
6.77128e-05
5.96944e-05
5.22356e-05
4.54057e-05
3.92284e-05
3.37238e-05
2.89338e-05
2.48749e-05
2.16174e-05
1.92019e-05
1.81839e-05
1.81478e-05
2.11939e-05
3.13806e-05
0.000210597
0.00021356
0.000216659
0.000219697
0.000222558
0.00022526
0.00022769
0.000229704
0.000231247
0.000232254
0.000232618
0.000232278
0.00023118
0.000229241
0.000226419
0.00022268
0.000218016
0.000212452
0.000206111
0.000199015
0.000191208
0.000182934
0.000174303
0.000165216
0.000155405
0.000144661
0.000133197
0.000121709
0.000110976
0.000101371
9.28418e-05
8.53504e-05
7.88072e-05
7.35187e-05
6.94027e-05
6.11793e-05
9.2068e-05
3.99128e-07
3.75793e-10
0.000207441
0.000204346
0.000201034
0.000197009
0.000192815
0.000188422
0.000183775
0.000178984
0.000174167
0.000169298
0.000164347
0.000159308
0.000154134
0.000148748
0.000143101
0.000137156
0.00013087
0.000124249
0.000117299
0.000110058
0.000102569
9.48782e-05
8.70341e-05
7.91231e-05
7.12704e-05
6.36086e-05
5.62818e-05
4.94086e-05
4.30618e-05
3.72792e-05
3.20896e-05
2.75389e-05
2.36514e-05
2.04982e-05
1.81214e-05
1.70268e-05
1.68952e-05
1.942e-05
2.82034e-05
0.000184543
0.000187222
0.000190042
0.000192848
0.000195519
0.000198107
0.000200485
0.000202544
0.000204237
0.000205508
0.000206263
0.000206456
0.000206023
0.000204898
0.000203037
0.000200399
0.000196968
0.000192734
0.000187786
0.000182137
0.000175792
0.000168893
0.000161572
0.000153771
0.000145284
0.000135961
0.000125962
0.000115822
0.000106182
9.74061e-05
8.95218e-05
8.2503e-05
7.64076e-05
7.10799e-05
6.80533e-05
5.95177e-05
7.8009e-05
2.93435e-05
6.05222e-07
0.000181726
0.000178978
0.000176061
0.000172569
0.000168982
0.00016522
0.000161277
0.000157267
0.000153273
0.000149268
0.000145228
0.000141142
0.00013696
0.000132608
0.00012804
0.000123209
0.000118065
0.000112595
0.000106787
0.000100652
9.42204e-05
8.75305e-05
8.06203e-05
7.3568e-05
6.65058e-05
5.95803e-05
5.2911e-05
4.66009e-05
4.07239e-05
3.53273e-05
3.04474e-05
2.61324e-05
2.24135e-05
1.9361e-05
1.70191e-05
1.58503e-05
1.56303e-05
1.77212e-05
2.52571e-05
0.000162136
0.000164549
0.00016712
0.000169689
0.000172176
0.000174617
0.000176912
0.000178949
0.000180707
0.000182129
0.000183137
0.000183687
0.000183734
0.00018321
0.000182084
0.000180302
0.000177841
0.000174685
0.000170873
0.000166426
0.000161321
0.000155623
0.000149474
0.000142839
0.000135559
0.000127518
0.000118841
0.000109939
0.000101334
9.3366e-05
8.61192e-05
7.95898e-05
7.3884e-05
6.88021e-05
6.55477e-05
5.9948e-05
6.37328e-05
5.98058e-05
7.28451e-06
0.000159618
0.000157172
0.000154595
0.000151558
0.000148465
0.000145228
0.000141861
0.000138483
0.000135146
0.00013183
0.00012851
0.000125171
0.000121768
0.000118233
0.00011452
0.000110583
0.000106368
0.000101846
9.69979e-05
9.18203e-05
8.63179e-05
8.05149e-05
7.44467e-05
6.81962e-05
6.18871e-05
5.56513e-05
4.95991e-05
4.38238e-05
3.83984e-05
3.3376e-05
2.87981e-05
2.47144e-05
2.11626e-05
1.82108e-05
1.59054e-05
1.46706e-05
1.43694e-05
1.60968e-05
2.25337e-05
0.00014278
0.000144953
0.000147289
0.000149639
0.000151938
0.000154226
0.000156402
0.000158383
0.000160144
0.000161639
0.0001628
0.000163596
0.000163983
0.000163908
0.000163329
0.000162206
0.000160505
0.000158205
0.000155308
0.000151851
0.000147794
0.000143141
0.000138024
0.000132431
0.000126237
0.000119349
0.000111861
0.000104089
9.64546e-05
8.92658e-05
8.26399e-05
7.66083e-05
7.12566e-05
6.65549e-05
6.28605e-05
5.95662e-05
5.62383e-05
6.43923e-05
3.02133e-05
0.000140529
0.000138346
0.000136065
0.000133418
0.000130728
0.00012793
0.000125041
0.000122173
0.000119365
0.000116599
0.000113851
0.000111105
0.000108317
0.00010543
0.0001024
9.91783e-05
9.57156e-05
9.19772e-05
8.79311e-05
8.35641e-05
7.88738e-05
7.38667e-05
6.85645e-05
6.3045e-05
5.7427e-05
5.18299e-05
4.63558e-05
4.10881e-05
3.60964e-05
3.14359e-05
2.71523e-05
2.32949e-05
1.99075e-05
1.70545e-05
1.47858e-05
1.34909e-05
1.31155e-05
1.45506e-05
2.00384e-05
0.000125995
0.000127954
0.000130071
0.000132215
0.000134331
0.00013646
0.000138505
0.000140402
0.000142127
0.000143639
0.000144886
0.000145837
0.000146456
0.000146697
0.000146524
0.000145901
0.000144789
0.000143165
0.000141016
0.000138378
0.000135195
0.000131441
0.000127225
0.000122556
0.00011733
0.00011147
0.000105046
9.82995e-05
9.15676e-05
8.51235e-05
7.90996e-05
7.35592e-05
6.8557e-05
6.42106e-05
6.03627e-05
5.79142e-05
5.32885e-05
5.79334e-05
4.69634e-05
0.000123981
0.000122031
0.000120008
0.000117692
0.000115342
0.000112909
0.000110418
0.00010797
0.000105593
0.000103269
0.000100974
9.86964e-05
9.63992e-05
9.40271e-05
9.15411e-05
8.88946e-05
8.60402e-05
8.2944e-05
7.957e-05
7.58933e-05
7.1899e-05
6.75904e-05
6.29799e-05
5.8127e-05
5.31375e-05
4.81299e-05
4.31963e-05
3.84078e-05
3.38292e-05
2.95163e-05
2.5517e-05
2.188e-05
1.86533e-05
1.58973e-05
1.36661e-05
1.23186e-05
1.18762e-05
1.30777e-05
1.77551e-05
0.000111388
0.000113153
0.000115073
0.000117022
0.000118967
0.000120936
0.000122845
0.000124641
0.000126303
0.000127796
0.000129072
0.000130112
0.000130883
0.000131345
0.000131473
0.000131223
0.000130568
0.000129479
0.000127931
0.000125953
0.00012349
0.000120501
0.000117067
0.000113205
0.000108838
0.000103892
9.84146e-05
9.25939e-05
8.6696e-05
8.09562e-05
7.55131e-05
7.04489e-05
6.58071e-05
6.17532e-05
5.8016e-05
5.557e-05
5.17681e-05
5.14235e-05
5.08387e-05
0.000109589
0.00010784
0.000106044
0.000104011
0.000101948
9.98248e-05
9.76678e-05
9.55646e-05
9.35374e-05
9.15688e-05
8.96434e-05
8.77429e-05
8.58343e-05
8.38709e-05
8.18177e-05
7.9635e-05
7.72754e-05
7.4704e-05
7.18855e-05
6.87909e-05
6.53996e-05
6.17002e-05
5.76983e-05
5.34441e-05
4.90332e-05
4.45702e-05
4.0136e-05
3.57955e-05
3.16072e-05
2.76259e-05
2.39e-05
2.04774e-05
1.74073e-05
1.47464e-05
1.25532e-05
1.11599e-05
1.06596e-05
1.16804e-05
1.56768e-05
9.8637e-05
0.000100228
0.000101966
0.000103737
0.00010552
0.000107332
0.000109107
0.000110791
0.000112374
0.00011382
0.000115093
0.000116175
0.00011704
0.000117653
0.000117991
0.00011802
0.000117709
0.000117034
0.000115964
0.000114515
0.000112645
0.000110304
0.000107542
0.000104382
0.000100766
9.66231e-05
9.19851e-05
8.69949e-05
8.18611e-05
7.67832e-05
7.18949e-05
6.72882e-05
6.30093e-05
5.92117e-05
5.56954e-05
5.3056e-05
5.01221e-05
4.71776e-05
4.83161e-05
9.70295e-05
9.54616e-05
9.38618e-05
9.20712e-05
9.02546e-05
8.83952e-05
8.65164e-05
8.47009e-05
8.29618e-05
8.12841e-05
7.96528e-05
7.80545e-05
7.64575e-05
7.48236e-05
7.31204e-05
7.13083e-05
6.93488e-05
6.72088e-05
6.48508e-05
6.22442e-05
5.93656e-05
5.61966e-05
5.27334e-05
4.90162e-05
4.51271e-05
4.11608e-05
3.71853e-05
3.32612e-05
2.94404e-05
2.57749e-05
2.23115e-05
1.90961e-05
1.61779e-05
1.36103e-05
1.14553e-05
1.00223e-05
9.47126e-06
1.03591e-05
1.37958e-05
8.74768e-05
8.89096e-05
9.04802e-05
9.20906e-05
9.37175e-05
9.53828e-05
9.70227e-05
9.85942e-05
0.000100085
0.000101469
0.000102711
0.000103801
0.000104712
0.000105422
0.000105907
0.000106138
0.000106088
0.00010573
0.000105038
0.000104016
0.000102629
0.000100832
9.8638e-05
9.60835e-05
9.31166e-05
8.96748e-05
8.5775e-05
8.15252e-05
7.70855e-05
7.26233e-05
6.82612e-05
6.40938e-05
6.01709e-05
5.66199e-05
5.33296e-05
5.05821e-05
4.80475e-05
4.4385e-05
4.4438e-05
8.60362e-05
8.46338e-05
8.32053e-05
8.16242e-05
8.00195e-05
7.83848e-05
7.67423e-05
7.51646e-05
7.36631e-05
7.22232e-05
7.0834e-05
6.9481e-05
6.81365e-05
6.6765e-05
6.53397e-05
6.38284e-05
6.21949e-05
6.04074e-05
5.84306e-05
5.62344e-05
5.37922e-05
5.10809e-05
4.80898e-05
4.48482e-05
4.14264e-05
3.7907e-05
3.43549e-05
3.08164e-05
2.73398e-05
2.39731e-05
2.07602e-05
1.77443e-05
1.4974e-05
1.24982e-05
1.03813e-05
8.91365e-06
8.31916e-06
9.11226e-06
1.20968e-05
7.76829e-05
7.89726e-05
8.03913e-05
8.18549e-05
8.33371e-05
8.48631e-05
8.63732e-05
8.78305e-05
8.92267e-05
9.05358e-05
9.17318e-05
9.2804e-05
9.37321e-05
9.44966e-05
9.50767e-05
9.54504e-05
9.55916e-05
9.54762e-05
9.50797e-05
9.43937e-05
9.34002e-05
9.20476e-05
9.0331e-05
8.82899e-05
8.58848e-05
8.30529e-05
7.97998e-05
7.62053e-05
7.23922e-05
6.84959e-05
6.46284e-05
6.08793e-05
5.73005e-05
5.3998e-05
5.09114e-05
4.81723e-05
4.57182e-05
4.21039e-05
4.09033e-05
7.63913e-05
7.51357e-05
7.38581e-05
7.24593e-05
7.10385e-05
6.95954e-05
6.8155e-05
6.67787e-05
6.54744e-05
6.42314e-05
6.30389e-05
6.18833e-05
6.07409e-05
5.95839e-05
5.8386e-05
5.71172e-05
5.57477e-05
5.42488e-05
5.25881e-05
5.07336e-05
4.86595e-05
4.63404e-05
4.37612e-05
4.09407e-05
3.79386e-05
3.48235e-05
3.16553e-05
2.84717e-05
2.53158e-05
2.22297e-05
1.92549e-05
1.64311e-05
1.38044e-05
1.14189e-05
9.33949e-06
7.84074e-06
7.2086e-06
7.94375e-06
1.05731e-05
6.90668e-05
7.02294e-05
7.15107e-05
7.28377e-05
7.41873e-05
7.55816e-05
7.69683e-05
7.83132e-05
7.96138e-05
8.08428e-05
8.19815e-05
8.30187e-05
8.39409e-05
8.4728e-05
8.53664e-05
8.58368e-05
8.61155e-05
8.61815e-05
8.60113e-05
8.55903e-05
8.49104e-05
8.39241e-05
8.26068e-05
8.10015e-05
7.90733e-05
7.67639e-05
7.40703e-05
7.1051e-05
6.77994e-05
6.44209e-05
6.10131e-05
5.76589e-05
5.44113e-05
5.13526e-05
4.8457e-05
4.57894e-05
4.33176e-05
3.9896e-05
3.78844e-05
6.79109e-05
6.6785e-05
6.56402e-05
6.44009e-05
6.31401e-05
6.18625e-05
6.05954e-05
5.93882e-05
5.825e-05
5.717e-05
5.61403e-05
5.51473e-05
5.41705e-05
5.31855e-05
5.21711e-05
5.1101e-05
4.99473e-05
4.8684e-05
4.72839e-05
4.57164e-05
4.39538e-05
4.19692e-05
3.97445e-05
3.72921e-05
3.46609e-05
3.19117e-05
2.90909e-05
2.62335e-05
2.33749e-05
2.05522e-05
1.78037e-05
1.51646e-05
1.26767e-05
1.03808e-05
8.33935e-06
6.8115e-06
6.14571e-06
6.8543e-06
9.21174e-06
6.14724e-05
6.252e-05
6.36777e-05
6.48791e-05
6.61061e-05
6.73782e-05
6.8647e-05
6.98858e-05
7.10903e-05
7.22381e-05
7.33116e-05
7.43035e-05
7.5202e-05
7.59909e-05
7.66599e-05
7.71907e-05
7.75639e-05
7.77623e-05
7.77629e-05
7.75497e-05
7.71179e-05
7.64256e-05
7.54409e-05
7.41985e-05
7.26728e-05
7.08091e-05
6.85982e-05
6.6081e-05
6.33265e-05
6.04172e-05
5.74333e-05
5.44487e-05
5.15155e-05
4.86999e-05
4.5985e-05
4.34167e-05
4.09396e-05
3.76729e-05
3.52115e-05
6.04381e-05
5.94286e-05
5.84016e-05
5.73013e-05
5.61804e-05
5.5046e-05
5.39275e-05
5.2866e-05
5.1868e-05
5.09241e-05
5.00283e-05
4.91694e-05
4.83288e-05
4.74854e-05
4.66195e-05
4.57105e-05
4.47334e-05
4.36662e-05
4.24809e-05
4.11512e-05
3.96513e-05
3.79534e-05
3.60355e-05
3.39061e-05
3.16031e-05
2.91788e-05
2.66722e-05
2.41117e-05
2.15268e-05
1.89506e-05
1.64156e-05
1.39533e-05
1.1601e-05
9.3941e-06
7.39081e-06
5.83392e-06
5.13598e-06
5.84711e-06
8.00438e-06
5.47667e-05
5.57095e-05
5.6756e-05
5.78423e-05
5.89567e-05
6.01158e-05
6.1274e-05
6.24123e-05
6.35224e-05
6.45891e-05
6.55941e-05
6.65336e-05
6.73957e-05
6.81708e-05
6.88476e-05
6.94114e-05
6.98481e-05
7.01391e-05
7.02675e-05
7.02144e-05
6.99779e-05
6.9519e-05
6.8806e-05
6.7863e-05
6.66737e-05
6.51883e-05
6.33901e-05
6.13082e-05
5.89912e-05
5.65016e-05
5.39059e-05
5.12663e-05
4.86267e-05
4.60489e-05
4.35132e-05
4.10556e-05
3.86062e-05
3.54624e-05
3.27608e-05
5.38397e-05
5.29351e-05
5.20138e-05
5.10349e-05
5.00369e-05
4.90287e-05
4.80378e-05
4.71008e-05
4.62217e-05
4.53927e-05
4.46091e-05
4.3861e-05
4.3132e-05
4.24052e-05
4.16629e-05
4.08861e-05
4.00541e-05
3.91465e-05
3.81399e-05
3.70093e-05
3.57295e-05
3.42746e-05
3.26214e-05
3.07727e-05
2.87591e-05
2.66239e-05
2.43993e-05
2.21089e-05
1.97765e-05
1.743e-05
1.50971e-05
1.28048e-05
1.05857e-05
8.46843e-06
6.50441e-06
4.91654e-06
4.18354e-06
4.92521e-06
6.94118e-06
4.88345e-05
4.9684e-05
5.06279e-05
5.16106e-05
5.26212e-05
5.36749e-05
5.47316e-05
5.57734e-05
5.67941e-05
5.77799e-05
5.87161e-05
5.95983e-05
6.04189e-05
6.11683e-05
6.18378e-05
6.24162e-05
6.28899e-05
6.3244e-05
6.3464e-05
6.35313e-05
6.34441e-05
6.31696e-05
6.2675e-05
6.198e-05
6.10687e-05
5.98979e-05
5.84497e-05
5.67417e-05
5.48073e-05
5.26915e-05
5.04464e-05
4.81248e-05
4.57635e-05
4.341e-05
4.10551e-05
3.8711e-05
3.63182e-05
3.32933e-05
3.04736e-05
4.80032e-05
4.71935e-05
4.63672e-05
4.54937e-05
4.46046e-05
4.37077e-05
4.28277e-05
4.19979e-05
4.12204e-05
4.04895e-05
3.98008e-05
3.91452e-05
3.85095e-05
3.78781e-05
3.72375e-05
3.65701e-05
3.58578e-05
3.50828e-05
3.42243e-05
3.32599e-05
3.21664e-05
3.09179e-05
2.94915e-05
2.78862e-05
2.61255e-05
2.42472e-05
2.22759e-05
2.02305e-05
1.813e-05
1.59971e-05
1.38553e-05
1.17265e-05
9.63821e-06
7.61247e-06
5.69087e-06
4.06898e-06
3.29245e-06
4.09426e-06
6.01458e-06
4.35785e-05
4.43442e-05
4.5195e-05
4.60835e-05
4.69995e-05
4.79556e-05
4.89184e-05
4.98698e-05
5.08062e-05
5.1714e-05
5.25821e-05
5.3406e-05
5.41798e-05
5.48949e-05
5.55463e-05
5.61223e-05
5.66144e-05
5.7009e-05
5.72926e-05
5.74479e-05
5.74737e-05
5.73422e-05
5.70225e-05
5.65272e-05
5.58441e-05
5.49352e-05
5.37816e-05
5.23917e-05
5.07878e-05
4.90015e-05
4.70717e-05
4.50395e-05
4.29369e-05
4.08001e-05
3.86204e-05
3.6399e-05
3.40831e-05
3.11892e-05
2.83347e-05
4.28334e-05
4.21083e-05
4.13677e-05
4.05869e-05
3.97945e-05
3.89954e-05
3.82127e-05
3.74756e-05
3.67862e-05
3.61387e-05
3.553e-05
3.49535e-05
3.43963e-05
3.38448e-05
3.32881e-05
3.27109e-05
3.20978e-05
3.14336e-05
3.06989e-05
2.98734e-05
2.89364e-05
2.7863e-05
2.66311e-05
2.52371e-05
2.36993e-05
2.20473e-05
2.03026e-05
1.84785e-05
1.65904e-05
1.46558e-05
1.26944e-05
1.07235e-05
8.76517e-06
6.83517e-06
4.96224e-06
3.30386e-06
2.46604e-06
3.36192e-06
5.21836e-06
3.89158e-05
3.96052e-05
4.03724e-05
4.11746e-05
4.2004e-05
4.28715e-05
4.37465e-05
4.46141e-05
4.54712e-05
4.63048e-05
4.71059e-05
4.78711e-05
4.85954e-05
4.9272e-05
4.98968e-05
5.04617e-05
5.09576e-05
5.13732e-05
5.16972e-05
5.19154e-05
5.20248e-05
5.20025e-05
5.18209e-05
5.14855e-05
5.09868e-05
5.0293e-05
4.9385e-05
4.82638e-05
4.69435e-05
4.54449e-05
4.37954e-05
4.20267e-05
4.0162e-05
3.82302e-05
3.62219e-05
3.41317e-05
3.19069e-05
2.91526e-05
2.63317e-05
3.82479e-05
3.75982e-05
3.69345e-05
3.62368e-05
3.55294e-05
3.48169e-05
3.412e-05
3.34638e-05
3.28506e-05
3.22752e-05
3.17361e-05
3.12253e-05
3.07339e-05
3.02508e-05
2.97649e-05
2.92633e-05
2.87329e-05
2.81604e-05
2.75289e-05
2.68203e-05
2.60153e-05
2.50916e-05
2.40265e-05
2.28146e-05
2.14714e-05
2.00198e-05
1.84774e-05
1.68535e-05
1.51595e-05
1.34095e-05
1.16185e-05
9.80085e-06
7.97262e-06
6.14433e-06
4.3306e-06
2.63853e-06
1.70556e-06
2.74022e-06
4.54647e-06
3.47738e-05
3.53946e-05
3.60855e-05
3.68096e-05
3.75597e-05
3.83458e-05
3.91401e-05
3.99298e-05
4.07125e-05
4.14758e-05
4.22127e-05
4.29204e-05
4.35945e-05
4.42302e-05
4.48237e-05
4.53685e-05
4.5857e-05
4.628e-05
4.66285e-05
4.68896e-05
4.70585e-05
4.71179e-05
4.70419e-05
4.68324e-05
4.64815e-05
4.59628e-05
4.52569e-05
4.43615e-05
4.32827e-05
4.20329e-05
4.06306e-05
3.90979e-05
3.74527e-05
3.57132e-05
3.38717e-05
3.19147e-05
2.97975e-05
2.71952e-05
2.44546e-05
3.4175e-05
3.35933e-05
3.29984e-05
3.23746e-05
3.17431e-05
3.11074e-05
3.04861e-05
2.99014e-05
2.93549e-05
2.88421e-05
2.83621e-05
2.79091e-05
2.74741e-05
2.70479e-05
2.66215e-05
2.61837e-05
2.57233e-05
2.52281e-05
2.46832e-05
2.40734e-05
2.33805e-05
2.25836e-05
2.16617e-05
2.06081e-05
1.94343e-05
1.81599e-05
1.67975e-05
1.53541e-05
1.38378e-05
1.22594e-05
1.06302e-05
8.96085e-06
7.26388e-06
5.54527e-06
3.80738e-06
2.09996e-06
1.0135e-06
2.24622e-06
3.99395e-06
3.109e-05
3.16488e-05
3.22705e-05
3.29239e-05
3.36018e-05
3.43133e-05
3.50338e-05
3.57517e-05
3.64647e-05
3.71625e-05
3.78384e-05
3.84904e-05
3.91148e-05
3.97079e-05
4.02665e-05
4.07861e-05
4.126e-05
4.16811e-05
4.20408e-05
4.23275e-05
4.25366e-05
4.2655e-05
4.26594e-05
4.2547e-05
4.2313e-05
4.19344e-05
4.1394e-05
4.06857e-05
3.98106e-05
3.87747e-05