/*--------------------------------*- C++ -*----------------------------------*\
| =========                 |                                                 |
| \\      /  F ield         | OpenFOAM: The Open Source CFD Toolbox           |
|  \\    /   O peration     | Version:  2312                                  |
|   \\  /    A nd           | Website:  www.openfoam.com                      |
|    \\/     M anipulation  |                                                 |
\*---------------------------------------------------------------------------*/
FoamFile
{
    version     2.0;
    format      ascii;
    arch        "LSB;label=32;scalar=64";
    class       volVectorField;
    location    "350";
    object      momentError;
}
// * * * * * * * * * * * * * * * * * * * * * * * * * * * * * * * * * * * * * //

dimensions      [0 1 -2 0 0 0 0];

internalField   nonuniform List<vector> 
10720
(
(-0.00118422 0.0059801 -4.16199e-15)
(-0.000812803 0.00585281 -2.46529e-15)
(-2.02371e-05 0.003815 -2.15853e-14)
(0.000269166 0.00360253 9.99221e-14)
(0.000479094 0.00320412 7.47369e-14)
(0.000609573 0.0027899 -1.85132e-13)
(0.000699719 0.00237728 -1.39568e-13)
(0.000706186 0.00193638 -1.0761e-13)
(0.000654163 0.00155584 2.155e-14)
(0.000566942 0.00119593 5.47631e-15)
(0.000460128 0.000981786 -1.55952e-14)
(0.000151447 0.00047091 6.73773e-14)
(-7.80764e-05 0.000164552 -2.19369e-13)
(-0.000276423 -8.58658e-05 -4.01243e-13)
(-0.000515524 -0.000321573 7.43299e-14)
(-0.000784251 -0.000542764 -1.06088e-13)
(-0.00110095 -0.000733006 1.15544e-13)
(-0.00153918 -0.00089512 8.86582e-13)
(-0.00171774 -0.000927333 2.34708e-13)
(-0.00230864 -0.00115657 -4.66655e-13)
(-0.00328837 -0.00129207 -2.3125e-13)
(-0.0008965 3.72345e-05 9.58856e-14)
(0.00746106 0.00139742 3.38066e-13)
(0.0287329 0.00504781 -2.47232e-13)
(0.00930184 0.0033889 4.5911e-14)
(-0.0108868 1.59523e-05 -4.01601e-14)
(-0.0152358 -0.00260382 -6.94568e-14)
(-0.00731823 -0.0029754 1.31249e-14)
(-0.000915283 -0.00196814 1.00898e-14)
(0.00156077 -0.000794144 2.09892e-13)
(0.0020665 -0.000144024 1.55006e-13)
(0.00125234 2.7633e-05 -1.77284e-13)
(0.000188937 2.10806e-05 -1.33398e-13)
(9.27842e-05 -2.29963e-05 -2.39295e-13)
(4.89899e-05 9.39659e-05 -1.59696e-13)
(-0.000438381 0.00131103 1.54544e-13)
(0.00111867 0.0115393 -1.08647e-14)
(0.0531589 0.0720645 -5.81118e-16)
(1.0912 -0.120142 -6.35067e-14)
(-0.00133384 0.00549832 8.10796e-15)
(-0.00142136 0.00448423 -2.00069e-14)
(-0.00138337 0.00335418 2.2919e-14)
(-0.00117334 0.00234224 1.04289e-13)
(-0.000953481 0.00160074 3.60714e-14)
(-0.00076877 0.00101128 -2.84886e-13)
(-0.000340264 0.000389267 -1.55809e-13)
(-0.000109319 0.000153974 1.61073e-13)
(-0.000207518 0.000225569 -6.37522e-14)
(-0.000415308 0.000387629 5.91472e-14)
(-0.000413024 0.000266226 -8.07566e-14)
(-0.000293131 0.00015168 -1.38036e-13)
(-0.000243814 0.000115657 3.60451e-14)
(-0.000220245 9.43153e-05 7.11228e-14)
(-0.000187731 7.23266e-05 -1.17395e-13)
(-0.000154971 5.73728e-05 -1.01458e-13)
(-0.000131835 4.79702e-05 -7.2399e-14)
(-0.000114278 4.09936e-05 -8.85856e-14)
(-9.93337e-05 3.48554e-05 -3.26383e-14)
(-8.63649e-05 2.97201e-05 -2.83433e-15)
(-7.5509e-05 2.48242e-05 3.10527e-14)
(-6.58606e-05 2.06115e-05 6.26797e-14)
(-5.72417e-05 1.61151e-05 -2.99168e-14)
(-4.75487e-05 1.23744e-05 -2.12866e-14)
(-3.62738e-05 8.8101e-06 2.58194e-14)
(-2.49037e-05 8.55263e-06 -4.02078e-15)
(-1.62148e-05 7.64643e-06 -9.9134e-16)
(-1.11532e-05 -9.19002e-07 -2.05168e-15)
(-6.98082e-06 -6.82366e-06 4.71687e-16)
(-4.51036e-06 -7.1003e-06 1.09707e-16)
(1.67552e-06 -4.90392e-06 4.97583e-16)
(1.44213e-05 -3.92574e-06 -1.32934e-15)
(3.95143e-05 -1.18927e-06 -2.52097e-15)
(3.87333e-05 -5.28208e-07 -4.07108e-15)
(4.02988e-05 -2.8928e-06 -5.35977e-15)
(5.22406e-05 -4.94532e-06 -2.34917e-15)
(0.000254594 8.00364e-06 1.28087e-14)
(0.000327118 -0.000169575 -3.38233e-15)
(0.00189732 -0.00152735 -5.83453e-14)
(0.00048987 0.00421289 -3.8792e-15)
(0.000852023 0.004085 2.20469e-15)
(0.00109846 0.0027598 -1.9838e-17)
(0.00141577 0.00264249 -7.55972e-15)
(0.00161443 0.00241633 9.99795e-15)
(0.00173328 0.0021446 6.7202e-14)
(0.00184616 0.00184806 8.02742e-14)
(0.00187698 0.00155267 2.64623e-14)
(0.00183406 0.00127731 -8.61545e-14)
(0.00177755 0.00104665 -4.18896e-14)
(0.00164489 0.000786678 -2.56354e-13)
(0.00163007 0.000962053 -4.72154e-13)
(0.00158065 0.000988114 -2.36376e-14)
(0.00155272 0.000907957 -2.07037e-14)
(0.00134998 0.00091597 -8.27859e-14)
(0.00116553 0.000913257 8.65169e-14)
(0.00100878 0.000918101 3.88944e-13)
(0.00080102 0.000887102 -6.87354e-13)
(0.00105304 0.000628755 -5.72214e-13)
(0.00594109 -7.76868e-05 -3.58388e-13)
(0.00125548 0.000419426 2.1527e-13)
(-0.00393336 0.00258824 2.96344e-13)
(0.0186075 0.00978446 -3.85742e-13)
(-0.0577239 -0.0031057 5.93554e-14)
(-0.106489 -0.0170296 -2.10263e-15)
(-0.0414064 -0.00970767 -1.16555e-14)
(0.0110401 -0.00558905 -4.082e-15)
(0.0364665 -0.00132961 1.23269e-14)
(0.0118561 -0.000636284 -2.74862e-14)
(-0.000565801 -0.000295353 -1.02192e-14)
(-0.00117531 0.000106862 9.34215e-15)
(1.43983e-05 0.000185475 -5.55453e-15)
(0.000655058 -4.34815e-05 -1.14721e-13)
(0.00066543 -0.000113537 -7.19256e-14)
(0.000268769 1.46062e-05 1.60267e-13)
(-0.000377875 0.000429325 2.84504e-14)
(-0.0010513 0.00231679 6.35362e-14)
(-0.0319278 0.0143846 -1.17533e-14)
(-0.892386 0.108739 -3.25937e-14)
(0.000253303 0.00394428 -1.6393e-14)
(-4.57832e-05 0.00328898 1.50201e-13)
(-0.000282428 0.00256546 -4.71461e-14)
(-0.000385618 0.00199392 -1.15845e-13)
(-0.000449137 0.0014764 8.2858e-14)
(-0.000455362 0.00098415 6.69284e-14)
(-0.000301657 0.000546174 2.91282e-14)
(-0.000210862 0.000349658 1.54082e-13)
(-0.000283081 0.000337202 -3.02351e-15)
(-0.000399629 0.00034098 -4.39919e-14)
(-0.000423112 0.000216986 7.29944e-14)
(-0.000367135 0.000130834 -9.49622e-14)
(-0.000322438 9.13239e-05 1.99584e-14)
(-0.000290512 5.79922e-05 1.04084e-14)
(-0.00025431 3.08972e-05 2.46893e-14)
(-0.000217514 1.71318e-05 2.76961e-14)
(-0.000188381 1.0282e-05 4.69675e-14)
(-0.000165472 6.3238e-06 -1.40531e-14)
(-0.000146132 3.41742e-06 3.03491e-15)
(-0.000129525 1.34896e-06 -7.01896e-15)
(-0.000115316 -6.46471e-07 1.82711e-14)
(-0.000102825 -2.58068e-06 5.30094e-14)
(-9.12224e-05 -4.80849e-06 -8.85866e-16)
(-7.89205e-05 -8.08317e-06 -1.76485e-14)
(-6.53577e-05 -1.12161e-05 -1.49698e-14)
(-5.20589e-05 -1.33689e-05 2.14098e-14)
(-3.95941e-05 -1.36148e-05 6.15525e-15)
(-2.91345e-05 -1.23867e-05 -1.60848e-15)
(-2.15447e-05 -9.45213e-06 4.65884e-17)
(-1.43342e-05 -6.38582e-06 -1.06161e-16)
(-7.89939e-06 -5.73645e-06 -1.99663e-16)
(-6.95499e-07 -3.73511e-06 -4.30161e-16)
(6.62166e-06 -8.94263e-07 2.17578e-15)
(5.23634e-06 9.7239e-07 2.41644e-15)
(-2.99799e-06 -1.88603e-06 2.74958e-15)
(9.38363e-05 -3.72383e-06 -7.42648e-15)
(7.26897e-05 -7.23566e-06 7.85558e-16)
(0.000143583 -7.58791e-06 1.33746e-14)
(0.00137287 0.000168511 1.57995e-14)
(-0.000164824 0.00334129 2.10286e-15)
(1.58819e-05 0.00320201 -1.43622e-15)
(0.000230259 0.00226681 -2.62836e-15)
(0.000396753 0.00226717 1.35992e-15)
(0.000510245 0.00214866 5.77464e-14)
(0.000604718 0.00195315 -6.4275e-14)
(0.000692201 0.00176514 -8.81818e-14)
(0.000733145 0.00156224 1.60622e-13)
(0.000734694 0.00135428 6.56138e-14)
(0.000715506 0.00116514 8.88374e-14)
(0.000669471 0.000994258 2.0494e-14)
(0.000602798 0.000812977 -7.66795e-16)
(0.000535982 0.000632995 3.55642e-13)
(0.00043822 0.000503094 1.20177e-14)
(0.000455045 0.000353584 2.16432e-13)
(0.000536494 0.000231888 1.20568e-15)
(0.000557607 0.000246796 -6.83829e-13)
(0.000546277 0.000441895 4.1192e-13)
(0.00014308 0.00190018 9.19863e-13)
(-0.00431146 0.00429426 1.65783e-13)
(-0.00138346 -0.000764108 -2.66322e-14)
(-0.000319105 -0.00724937 -6.79689e-14)
(-0.0375651 -0.00867151 1.64973e-13)
(0.00168338 0.00250882 1.18985e-13)
(0.0561223 0.0169658 -9.77135e-14)
(0.0425618 0.00626384 -2.18434e-14)
(0.0592405 0.00254647 -5.62672e-14)
(0.00866731 0.000357154 3.08579e-14)
(-0.0239367 -0.00230566 -2.82471e-14)
(-0.00175067 -0.000730434 -1.56277e-13)
(-0.0021834 0.000701938 -7.79979e-15)
(0.000273465 0.000911657 2.37324e-13)
(0.000489954 0.000421593 3.59806e-14)
(0.000791222 0.000134718 1.12196e-13)
(4.77954e-05 0.000165494 1.33262e-13)
(-0.000951791 0.000463638 2.20502e-14)
(-0.00283917 0.00147296 -8.48545e-14)
(-0.0164328 0.00219489 8.48875e-15)
(-0.113145 0.00980206 1.56797e-14)
(-0.00029126 0.00316275 2.43123e-14)
(-0.000373517 0.00267675 -3.70452e-14)
(-0.000425041 0.00209953 -4.65079e-14)
(-0.0004484 0.00168919 -1.31017e-14)
(-0.000433905 0.0012989 1.12875e-14)
(-0.000385903 0.000920112 -1.20769e-13)
(-0.000287442 0.000570418 2.34696e-14)
(-0.000259922 0.000437352 -1.49193e-13)
(-0.000337818 0.000418396 -1.24958e-13)
(-0.000410055 0.000375961 -1.15755e-13)
(-0.000420593 0.000290019 1.18264e-13)
(-0.000381615 0.000221706 1.03764e-13)
(-0.000337203 0.000174087 -6.4644e-14)
(-0.000298916 0.000133339 -1.48449e-13)
(-0.000260882 0.000100975 4.05276e-14)
(-0.000223335 7.96032e-05 6.98173e-14)
(-0.000191736 6.49537e-05 -1.89663e-14)
(-0.000166613 5.37562e-05 -9.26376e-14)
(-0.00014583 4.47186e-05 -2.68359e-14)
(-0.000128235 3.7305e-05 2.52973e-15)
(-0.000113403 3.05943e-05 -2.07017e-14)
(-0.000100571 2.43744e-05 -4.13931e-14)
(-8.86396e-05 1.79794e-05 9.12894e-15)
(-7.60335e-05 1.15482e-05 -6.39713e-16)
(-6.23891e-05 6.10673e-06 2.87575e-15)
(-4.90877e-05 2.44779e-06 -9.68855e-15)
(-3.70317e-05 7.80386e-07 -1.78548e-14)
(-2.66678e-05 -5.86504e-07 3.97436e-15)
(-1.83613e-05 -2.01983e-06 7.53571e-16)
(-1.15677e-05 -4.10085e-06 -1.71179e-16)
(-4.9439e-06 -5.22545e-06 1.19224e-16)
(4.24369e-06 -6.34301e-06 4.70836e-16)
(1.98658e-05 -5.56265e-06 -7.56507e-16)
(1.92331e-05 3.33532e-07 -1.43186e-15)
(2.92254e-05 -1.60586e-05 6.41905e-16)
(0.000103333 -8.04171e-05 -1.15907e-15)
(0.000251387 -3.20691e-05 8.75181e-15)
(0.000176078 -1.99658e-05 8.12834e-15)
(0.00105154 0.00018846 -8.31834e-14)
(0.000144274 0.00262592 1.0519e-14)
(0.000313259 0.002486 2.79023e-15)
(0.00044731 0.00182822 1.07557e-15)
(0.000606966 0.00183265 -6.51974e-15)
(0.000716926 0.0017187 1.03467e-15)
(0.000810922 0.00155138 -1.4523e-14)
(0.000903858 0.00139228 1.04191e-13)
(0.000952135 0.00121725 3.08601e-14)
(0.000967493 0.00103697 -2.52696e-13)
(0.000962873 0.000870354 8.50936e-14)
(0.000929534 0.000713385 2.72092e-13)
(0.000873678 0.00056846 3.41585e-13)
(0.000793279 0.000459173 7.87867e-14)
(0.000699216 0.000385466 -3.85246e-13)
(0.000633568 0.000306842 -9.78832e-14)
(0.000427027 0.000362618 -9.90273e-14)
(0.000277709 0.000367998 -1.79032e-13)
(0.00014309 0.0003823 -3.62122e-13)
(-0.000138677 0.000191484 -6.29137e-13)
(-0.000197002 -0.00159049 1.5905e-13)
(-0.000168 -0.000896764 -1.26901e-13)
(0.00398977 0.00486928 -1.78371e-13)
(0.0133619 0.00719998 2.33658e-15)
(0.00935732 0.00432551 -2.52303e-13)
(-0.0018531 -0.00260304 -4.63965e-14)
(-7.44296e-05 -0.00809728 4.39723e-14)
(-0.0619857 0.00141876 5.28109e-14)
(0.0243332 -3.4467e-05 -2.40925e-14)
(0.0773911 -0.0031796 3.34855e-14)
(-0.027294 0.00673453 6.48544e-14)
(-0.00421055 -0.00135599 -5.63658e-14)
(-0.0169857 0.00154668 1.21478e-14)
(-0.00617112 0.000233584 1.77473e-13)
(-0.000864095 0.000363812 8.07522e-14)
(-0.000158832 0.000358594 -3.2637e-14)
(-0.00111046 0.000588328 -1.08664e-13)
(-0.00204593 0.00100751 -2.72138e-14)
(-0.00689971 4.13921e-06 -1.97136e-14)
(-0.0334338 0.00903278 5.50491e-14)
(2.84203e-06 0.00249433 -1.74169e-15)
(-0.000120968 0.00216235 -3.89797e-14)
(-0.000223936 0.00173931 -3.45699e-14)
(-0.000294658 0.00144812 -2.81658e-14)
(-0.000327534 0.00114689 1.13965e-13)
(-0.000315977 0.000842161 2.05743e-13)
(-0.000264491 0.000569739 1.1748e-14)
(-0.000272933 0.000483816 1.41479e-13)
(-0.000361076 0.000474818 5.38586e-16)
(-0.000406044 0.000410021 -3.11157e-14)
(-0.000413629 0.000323992 -9.0112e-14)
(-0.000390581 0.000248397 -2.98111e-14)
(-0.000354216 0.000188086 -1.54206e-14)
(-0.000317376 0.000139251 7.44052e-14)
(-0.000280794 0.000100638 -3.90147e-14)
(-0.000244285 7.25969e-05 -1.32292e-13)
(-0.00021196 5.30733e-05 -1.68069e-14)
(-0.00018504 3.90696e-05 8.63548e-14)
(-0.000162383 2.85965e-05 -2.61243e-15)
(-0.000142931 2.06968e-05 -2.43512e-14)
(-0.000126332 1.4265e-05 -6.56402e-14)
(-0.000111786 8.80475e-06 2.67988e-14)
(-9.81313e-05 3.52396e-06 3.52159e-14)
(-8.39504e-05 -1.56924e-06 -6.07091e-15)
(-6.91429e-05 -5.83423e-06 -2.76244e-15)
(-5.49809e-05 -8.6512e-06 6.0222e-15)
(-4.21812e-05 -9.90923e-06 8.66016e-15)
(-3.09621e-05 -1.05943e-05 -2.03051e-15)
(-2.16215e-05 -1.05529e-05 -7.46392e-16)
(-1.37343e-05 -1.03128e-05 1.85008e-16)
(-5.95068e-06 -8.69116e-06 -1.01299e-16)
(5.48507e-06 5.93689e-07 -1.65075e-16)
(2.44765e-05 2.14947e-05 6.51039e-17)
(-1.47555e-05 -0.000115227 -2.61967e-16)
(-0.00068843 -0.0022873 -2.03333e-15)
(-0.000429762 -0.00182565 1.4724e-14)
(-9.04562e-06 -0.000257303 -2.21193e-14)
(0.000273943 0.000685092 -5.5457e-14)
(0.000943379 0.000143201 -3.03423e-14)
(3.40574e-05 0.00216385 -8.9273e-15)
(0.000145242 0.00204045 4.80159e-15)
(0.000238726 0.00155836 4.19132e-15)
(0.00035039 0.00158875 -1.73983e-14)
(0.000425867 0.00150955 -1.48412e-14)
(0.000493836 0.00138632 3.52308e-14)
(0.00056397 0.00128404 -1.29233e-14)
(0.000600074 0.00116129 1.36904e-14)
(0.000616191 0.00103035 -9.40622e-14)
(0.000617293 0.000909152 -2.87274e-13)
(0.000595191 0.000790918 -1.03066e-14)
(0.000555311 0.000680679 -1.25281e-13)
(0.000499609 0.000585695 -8.11765e-14)
(0.000437954 0.000503042 -1.43814e-14)
(0.00036482 0.000439554 -3.30103e-13)
(0.000318684 0.000350606 2.99779e-13)
(0.000286384 0.000276215 1.71948e-13)
(0.000244455 0.000256175 -3.86703e-13)
(0.00010506 0.000233063 1.22222e-13)
(1.58455e-05 0.000310335 -2.00977e-13)
(2.22981e-05 0.000448796 -1.39521e-13)
(-0.000167242 0.000166609 2.51199e-13)
(0.00108033 0.00111758 6.09761e-15)
(-0.00309483 0.00144056 2.21508e-13)
(-0.00058876 0.000886934 1.01109e-13)
(-0.00415601 -0.00399616 -2.04668e-14)
(0.0358351 -0.013014 6.24807e-15)
(-0.0136107 -0.00258313 2.47297e-14)
(-0.0329138 0.00152113 -3.01111e-14)
(0.0052404 0.00333274 -5.40635e-14)
(0.0130026 0.00490451 2.18299e-14)
(-0.00964174 -0.00181031 -5.27668e-14)
(-0.00541595 0.000112306 -4.00093e-14)
(-0.00517773 0.000298589 -1.49116e-13)
(-0.00216487 0.000431964 -2.39473e-13)
(-0.00234628 0.000628632 4.13545e-14)
(-0.00197033 0.000842065 -1.05372e-14)
(-0.00416943 -0.000411304 -9.3307e-15)
(-0.01994 0.00925407 -1.94163e-14)
(-6.2046e-05 0.00205812 2.00435e-14)
(-0.000136229 0.00180533 3.82112e-14)
(-0.000200217 0.00146787 -5.04896e-14)
(-0.000251327 0.00124547 -1.94948e-14)
(-0.000279751 0.00100669 7.47226e-14)
(-0.000274068 0.000764293 -1.50772e-13)
(-0.000260405 0.000589493 -9.96693e-14)
(-0.000291581 0.00052432 2.05202e-13)
(-0.000361072 0.000492743 1.92425e-13)
(-0.000395451 0.000425952 -8.41769e-15)
(-0.000401183 0.000348604 -5.58734e-14)
(-0.000384963 0.00027738 -3.47728e-14)
(-0.000354292 0.00021722 1.17142e-13)
(-0.000319778 0.000168099 -5.81142e-14)
(-0.000285003 0.000128821 -1.30474e-14)
(-0.000249815 9.8749e-05 9.83222e-14)
(-0.00021774 7.67647e-05 -4.44038e-14)
(-0.000190035 6.05707e-05 4.07395e-14)
(-0.000166409 4.80899e-05 2.43687e-14)
(-0.000145995 3.82434e-05 4.24646e-15)
(-0.000128473 2.99554e-05 6.83453e-14)
(-0.000113108 2.27632e-05 -2.56256e-14)
(-9.8738e-05 1.5834e-05 -4.77255e-14)
(-8.40307e-05 9.30504e-06 -7.62228e-15)
(-6.8982e-05 3.8338e-06 1.90815e-14)
(-5.47393e-05 1.40098e-07 6.49201e-16)
(-4.18321e-05 -1.82092e-06 9.25417e-15)
(-3.04814e-05 -2.86904e-06 -1.73589e-15)
(-2.09847e-05 -3.25874e-06 1.12355e-16)
(-1.30385e-05 -4.10666e-06 -2.76238e-16)
(-5.36175e-06 -5.60549e-06 -5.07304e-16)
(4.19786e-06 -1.44194e-05 4.13396e-17)
(1.51327e-05 -3.17198e-05 3.86254e-17)
(-2.21875e-06 0.000234979 4.80462e-16)
(0.000229419 0.00339185 -1.3935e-15)
(0.000155099 0.00261818 5.36367e-15)
(0.000212383 0.000291458 1.74703e-15)
(0.000278493 -0.000728799 -1.14586e-14)
(0.000769441 0.000255831 4.31173e-14)
(6.93116e-05 0.00179077 2.18008e-15)
(0.000166402 0.00168107 -4.30819e-16)
(0.000238759 0.00132153 2.42885e-15)
(0.000337902 0.00134952 -3.3515e-15)
(0.000404644 0.00127991 1.12914e-14)
(0.000465399 0.0011764 -1.49518e-15)
(0.000530976 0.0010926 -4.20242e-14)
(0.000568078 0.000988427 7.85356e-14)
(0.000589743 0.000876348 1.69732e-13)
(0.000600068 0.000770392 -1.05791e-13)
(0.00058926 0.000664421 -1.08082e-13)
(0.000563006 0.000562835 6.48646e-14)
(0.000523516 0.000472294 -1.49796e-13)
(0.000471865 0.000395143 -2.85023e-14)
(0.000412723 0.000331898 -4.61256e-14)
(0.00035651 0.000274041 1.98238e-14)
(0.000258385 0.000300431 4.028e-14)
(0.000181336 0.000332824 4.46989e-13)
(7.8208e-05 0.000342186 3.53055e-13)
(-8.7023e-05 0.00042776 -1.57621e-13)
(-0.000148382 0.000822902 2.26017e-13)
(-7.31789e-06 0.00131873 1.87445e-14)
(-0.000214372 0.00203307 -5.7082e-14)
(0.00129309 0.00330084 -1.18266e-13)
(0.00283061 0.00179695 9.30104e-15)
(0.00338685 -0.00199135 3.23157e-14)
(0.000118802 -0.00495316 4.00192e-14)
(-0.0125793 -0.00269796 -3.7862e-14)
(-0.0065069 0.000722461 9.83886e-15)
(0.0297609 -0.00137966 7.599e-14)
(-0.0133342 0.00364902 -2.97432e-14)
(0.00737685 -0.00059244 -1.6724e-13)
(-0.00142607 -0.000323205 -8.93899e-14)
(-0.000960795 -0.000296598 -6.14257e-14)
(-0.000750132 3.26772e-05 6.35045e-14)
(-0.00126209 -6.16086e-05 5.72833e-14)
(-0.00194 0.000857807 5.81207e-14)
(-0.00410108 -0.000346156 6.38813e-14)
(-0.0167767 0.00972874 -1.02177e-15)
(-1.67372e-05 0.0017078 -9.13882e-15)
(-8.75219e-05 0.00151695 -1.05366e-14)
(-0.000150102 0.00125036 2.56534e-15)
(-0.00020092 0.00107708 3.37482e-14)
(-0.000230929 0.000886816 2.23633e-14)
(-0.000235019 0.00068999 -1.94162e-13)
(-0.000246528 0.000578691 -1.16771e-13)
(-0.000291726 0.000535614 -1.84516e-13)
(-0.000347496 0.000496191 2.24422e-14)
(-0.00037583 0.000431202 2.06534e-14)
(-0.000382078 0.000359982 -5.19193e-14)
(-0.000371325 0.000292613 4.96183e-15)
(-0.000347119 0.000232751 -2.45834e-14)
(-0.00031735 0.000182303 -4.58448e-14)
(-0.000286123 0.000140938 -1.42142e-13)
(-0.000253792 0.000107866 -1.19726e-14)
(-0.000223347 8.24921e-05 8.63162e-14)
(-0.000196172 6.31778e-05 -1.33706e-14)
(-0.00017245 4.81631e-05 1.66974e-14)
(-0.000151656 3.6346e-05 -3.05237e-14)
(-0.000133515 2.67245e-05 -4.68589e-14)
(-0.000117412 1.85872e-05 -4.23024e-15)
(-0.000102251 1.12735e-05 1.76742e-14)
(-8.69026e-05 4.75682e-06 1.90793e-14)
(-7.13893e-05 -5.60487e-07 -5.85306e-16)
(-5.68442e-05 -4.23313e-06 -1.00554e-14)
(-4.36349e-05 -6.12036e-06 -1.69482e-14)
(-3.19651e-05 -7.09891e-06 3.28161e-15)
(-2.21304e-05 -7.36844e-06 -1.93011e-16)
(-1.39464e-05 -7.87332e-06 3.04138e-16)
(-6.34264e-06 -7.58518e-06 4.83069e-16)
(3.45911e-06 -3.72981e-06 -4.13348e-17)
(1.82527e-05 2.9544e-06 2.04786e-16)
(4.66086e-05 -6.32108e-05 -9.8871e-16)
(0.000399489 -0.00112151 3.27119e-16)
(0.000390355 -0.000890215 -1.44599e-14)
(0.000136128 2.90363e-05 2.26528e-14)
(7.18564e-05 0.000181663 5.78691e-14)
(0.00112211 -0.000503399 -2.15255e-14)
(4.82377e-05 0.00151082 9.78957e-16)
(0.000123955 0.0014154 -2.75257e-16)
(0.000180052 0.00114322 6.47105e-16)
(0.000258425 0.00117373 3.38161e-15)
(0.000310769 0.00111797 -9.0165e-15)
(0.000358681 0.00103609 -1.90859e-14)
(0.000410811 0.000977144 4.55235e-14)
(0.000440631 0.000898181 -8.91852e-15)
(0.000459039 0.000812624 5.0505e-14)
(0.000469481 0.000732635 1.0302e-13)
(0.000462455 0.000649929 2.22686e-14)
(0.000442871 0.000569824 3.44769e-14)
(0.000412186 0.000498092 2.16529e-13)
(0.000370187 0.0004354 3.672e-13)
(0.000322355 0.000383388 3.32837e-13)
(0.000267072 0.000348675 -5.40255e-15)
(0.00021687 0.000313794 4.05369e-13)
(0.000175806 0.000299459 2.67845e-14)
(0.000115532 0.000303378 -1.19163e-13)
(3.57147e-05 0.000381145 1.57429e-13)
(3.25034e-05 0.000595157 -2.60853e-13)
(6.6459e-05 0.000862173 1.10136e-13)
(0.000465218 0.00143846 1.10507e-13)
(0.00153545 0.00211094 4.48848e-14)
(0.00280302 0.00133439 1.20484e-13)
(0.00286628 -0.00110236 -4.9496e-14)
(0.000503807 -0.00291168 -4.27905e-14)
(-0.00154056 -0.00259805 6.31795e-15)
(-0.00268986 -0.00041399 2.63847e-14)
(-0.00205914 0.00161341 -7.03068e-14)
(0.00172922 0.00141359 -6.87099e-14)
(0.00295814 3.6908e-05 1.40187e-13)
(0.000859559 -0.000380834 3.15554e-14)
(0.00038325 -0.000415799 -6.03446e-14)
(0.00270036 -0.000554534 -4.98376e-16)
(0.0241058 -0.00742652 -1.43323e-13)
(-0.00727527 0.0031385 -5.09317e-14)
(-0.00376155 -0.000896321 -1.97386e-14)
(-0.0130782 0.00896392 -3.18914e-14)
(-1.81707e-05 0.00144284 -6.63894e-15)
(-7.44381e-05 0.00129198 -1.26866e-14)
(-0.000124987 0.00107614 6.0413e-15)
(-0.000168449 0.000937708 8.31822e-14)
(-0.000194685 0.000782368 3.5465e-14)
(-0.000203718 0.000619535 7.05753e-16)
(-0.000226155 0.000547877 1.82775e-13)
(-0.000280937 0.000527664 -8.38894e-14)
(-0.000326691 0.00048537 -1.35032e-13)
(-0.000351759 0.000425092 4.91439e-14)
(-0.000359421 0.00036133 9.80666e-14)
(-0.000352663 0.000299778 -2.41903e-14)
(-0.000333798 0.000243366 6.8567e-14)
(-0.000308944 0.000194658 9.3089e-15)
(-0.000281518 0.000153966 3.53122e-14)
(-0.000252198 0.00012042 1.24887e-14)
(-0.00022387 9.39446e-05 -3.93448e-14)
(-0.000197771 7.33001e-05 3.24366e-14)
(-0.000174366 5.70964e-05 -2.44824e-14)
(-0.000153497 4.41819e-05 4.50171e-15)
(-0.000135057 3.371e-05 6.51086e-14)
(-0.000118466 2.48163e-05 -2.25281e-14)
(-0.000102817 1.69175e-05 -3.0428e-14)
(-8.71335e-05 9.89712e-06 6.5807e-15)
(-7.15286e-05 4.17901e-06 -1.63348e-15)
(-5.69707e-05 1.27275e-07 2.98739e-15)
(-4.37425e-05 -2.14068e-06 8.56761e-15)
(-3.19645e-05 -3.2831e-06 -1.47185e-15)
(-2.19809e-05 -3.7095e-06 -1.40881e-16)
(-1.36706e-05 -4.28776e-06 1.95123e-16)
(-5.99201e-06 -4.36731e-06 1.44021e-15)
(4.65697e-06 -3.93333e-06 1.80611e-16)
(2.01819e-05 -1.72794e-06 -9.87497e-16)
(2.2504e-05 6.13133e-06 -1.77705e-16)
(2.41667e-05 2.91906e-05 -4.2834e-16)
(9.65468e-05 9.92911e-05 4.32493e-15)
(8.74598e-05 6.97767e-06 -8.98031e-15)
(0.000118087 -3.24247e-05 -1.42478e-14)
(0.000526338 0.000393909 -5.28091e-14)
(4.83773e-05 0.00128541 2.71812e-15)
(0.000111401 0.00120061 -3.05059e-15)
(0.000156895 0.000990128 -6.61664e-17)
(0.000223676 0.00101902 2.66671e-15)
(0.000268145 0.00097146 -2.03587e-15)
(0.000308388 0.000904153 2.54439e-15)
(0.000353741 0.000858561 8.73331e-15)
(0.000380573 0.000793934 -1.09194e-13)
(0.000398889 0.000723307 -1.46986e-14)
(0.000411874 0.000657421 1.70484e-13)
(0.00041003 0.000587181 -7.21139e-14)
(0.0003977 0.000517628 -1.5308e-13)
(0.000375952 0.000453834 -2.98882e-13)
(0.000343893 0.000396171 -2.46509e-13)
(0.000305209 0.000347684 -1.69443e-13)
(0.000261584 0.000310133 -6.17309e-14)
(0.000216812 0.000280681 -2.26999e-13)
(0.000164509 0.000299293 -3.15554e-13)
(0.000108388 0.00034122 -1.39068e-13)
(4.97976e-05 0.000448149 3.57509e-13)
(4.90889e-05 0.000639552 3.28294e-13)
(0.000113592 0.000843313 -2.15557e-14)
(0.000372801 0.00121008 -5.04585e-14)
(0.00123338 0.00159194 -1.5941e-13)
(0.0023084 0.0008555 -9.28602e-14)
(0.00224248 -0.00108226 4.27686e-14)
(0.000761372 -0.00243442 3.30662e-14)
(-0.00129776 -0.00194861 3.72112e-15)
(-0.0022343 -0.000298409 -1.98414e-14)
(-0.000937417 0.000782656 7.40339e-14)
(0.00010747 0.000734657 1.54706e-13)
(0.00105654 0.000101766 -1.04795e-14)
(0.00040642 -0.000293436 2.72342e-14)
(-0.000385717 -9.50408e-05 4.73939e-14)
(-0.00029839 0.00206891 -1.84997e-14)
(-0.0131523 0.00224062 1.74081e-13)
(-0.00218101 -0.00138894 7.94453e-14)
(-0.0017079 0.000285447 -6.39967e-14)
(-0.00771977 0.00795633 -1.89369e-14)
(-9.50202e-06 0.00122846 1.6563e-14)
(-5.77441e-05 0.00110827 2.03049e-14)
(-0.000102385 0.000932756 8.21949e-15)
(-0.00014156 0.000820118 9.76969e-14)
(-0.000166533 0.000690296 -1.73044e-13)
(-0.000182102 0.000573077 8.97403e-14)
(-0.000213312 0.000525045 1.5156e-13)
(-0.000264996 0.000506731 6.62389e-14)
(-0.000303124 0.000466185 -3.67957e-14)
(-0.000325115 0.00041177 -3.43625e-14)
(-0.000334129 0.000355276 2.1704e-14)
(-0.000330841 0.000299992 3.71888e-14)
(-0.000316629 0.000247868 -8.99191e-14)
(-0.000296593 0.000201766 6.45165e-14)
(-0.000273254 0.000162233 1.64821e-14)
(-0.000247374 0.000128685 -1.11056e-14)
(-0.000221733 0.000101301 -5.77507e-14)
(-0.00019733 7.93226e-05 -5.775e-14)
(-0.000174871 6.1678e-05 4.89971e-14)
(-0.000154424 4.73992e-05 1.4286e-14)
(-0.000136078 3.57168e-05 4.90984e-15)
(-0.000119325 2.58943e-05 5.16008e-14)
(-0.000103438 1.73522e-05 2.09204e-14)
(-8.75584e-05 9.96326e-06 -2.44627e-15)
(-7.19544e-05 3.94873e-06 6.82655e-15)
(-5.74211e-05 -3.30221e-07 -4.74831e-15)
(-4.41766e-05 -2.8796e-06 -9.33795e-15)
(-3.22968e-05 -4.14262e-06 1.37024e-15)
(-2.21624e-05 -4.67397e-06 -1.20143e-15)
(-1.37217e-05 -5.09589e-06 -4.10745e-16)
(-6.04418e-06 -5.21264e-06 -1.06101e-15)
(4.69122e-06 -4.14215e-06 1.15107e-15)
(1.97647e-05 -4.45268e-07 2.86214e-15)
(2.0455e-05 7.28783e-06 2.42103e-15)
(1.67155e-05 -7.49073e-08 1.38517e-15)
(6.21845e-05 -3.54742e-06 -5.26333e-15)
(0.000123105 -2.39713e-06 3.20975e-15)
(0.000137503 7.94137e-05 3.6045e-14)
(0.000141744 0.000573571 4.11086e-14)
(4.2812e-05 0.0011016 7.45392e-16)
(9.51134e-05 0.00102937 1.78227e-15)
(0.000131618 0.00086481 -2.56864e-15)
(0.00018694 0.000891093 3.64789e-15)
(0.000222964 0.000852406 -7.18292e-15)
(0.000255613 0.000797174 1.08659e-14)
(0.000293309 0.000763303 -1.31812e-14)
(0.000315926 0.000712382 -2.47149e-14)
(0.00033195 0.000656221 -3.28616e-14)
(0.00034466 0.000604986 -4.6516e-14)
(0.000344985 0.000548593 1.86699e-14)
(0.000336555 0.00049214 1.77966e-13)
(0.000320385 0.000439947 2.41119e-13)
(0.00029506 0.000391977 3.87517e-14)
(0.000263743 0.0003515 4.91541e-15)
(0.00022817 0.000320461 1.13677e-14)
(0.000189022 0.00030274 -4.0534e-14)
(0.000154496 0.000296436 1.2842e-13)
(0.000120355 0.000327185 1.17379e-13)
(9.39442e-05 0.000410481 -2.70505e-13)
(0.000114484 0.000554937 -2.7539e-14)
(0.000196654 0.000717854 5.69522e-14)
(0.000437462 0.000969983 -7.35867e-14)
(0.00108786 0.00116511 7.80073e-14)
(0.0018486 0.000545403 1.13764e-15)
(0.0017361 -0.000956128 -1.45166e-14)
(0.000363383 -0.00199498 -4.25891e-14)
(-0.00124436 -0.00156251 1.7529e-15)
(-0.00170294 -0.000196177 -4.27511e-17)
(-0.000937783 0.000697283 3.50168e-14)
(6.32426e-05 0.000572149 1.70216e-14)
(0.000583064 6.68216e-05 -7.45396e-14)
(0.000345794 -0.000266806 -3.44014e-14)
(-0.000323342 -0.000187025 1.72302e-13)
(-0.0014193 0.000369244 2.68259e-14)
(-0.00905569 0.00555742 -1.27635e-13)
(0.00731271 -0.00250718 -4.21417e-14)
(-0.0128749 0.00955832 5.05056e-14)
(-0.00359993 0.00652861 -1.68729e-15)
(-5.66772e-06 0.00105429 3.43902e-15)
(-4.70081e-05 0.000957225 -4.87413e-14)
(-8.57765e-05 0.00081252 2.41597e-14)
(-0.000120791 0.000719113 2.13196e-14)
(-0.000143816 0.000610092 4.61666e-14)
(-0.000164092 0.000530953 -1.5463e-14)
(-0.000199602 0.000499111 -3.71518e-14)
(-0.000245354 0.000478832 -3.78701e-15)
(-0.000278468 0.000441566 -2.6266e-15)
(-0.000298093 0.000393476 1.39798e-14)
(-0.000307962 0.000343827 4.01261e-14)
(-0.000307419 0.000294856 6.60056e-14)
(-0.000297183 0.000247725 -4.62697e-15)
(-0.000281486 0.000205224 -1.34747e-13)
(-0.00026203 0.00016779 2.62861e-14)
(-0.00023961 0.00013523 7.69874e-14)
(-0.000216833 0.000107979 5.91146e-14)
(-0.000194376 8.55095e-05 2.68669e-14)
(-0.000173197 6.71294e-05 -2.22938e-14)
(-0.000153505 5.21149e-05 -5.94928e-15)
(-0.000135499 3.97167e-05 -2.35511e-14)
(-0.000118806 2.93197e-05 -4.32083e-14)
(-0.000102861 2.03729e-05 1.7799e-14)
(-8.69918e-05 1.26987e-05 1.67721e-14)
(-7.15266e-05 6.46278e-06 2.99212e-15)
(-5.71766e-05 1.96036e-06 1.69896e-14)
(-4.40372e-05 -8.14107e-07 5.9407e-15)
(-3.21946e-05 -2.26424e-06 -1.00108e-15)
(-2.19823e-05 -2.81163e-06 1.12616e-15)
(-1.3481e-05 -3.18497e-06 4.59757e-16)
(-5.8585e-06 -3.25145e-06 -1.28768e-15)
(4.84447e-06 -2.5538e-06 -1.52296e-15)
(1.98872e-05 -2.93851e-08 -7.6206e-16)
(2.07918e-05 6.38881e-06 -4.20961e-16)
(1.55866e-05 5.62709e-06 2.76755e-15)
(6.46392e-05 1.00362e-05 -4.82122e-16)
(0.000122325 2.12211e-05 1.16822e-14)
(0.000158354 5.28963e-05 -1.28354e-14)
(0.000498556 0.000173544 -6.19303e-15)
(3.95142e-05 0.000950429 3.83314e-15)
(8.35387e-05 0.000886987 -1.38075e-15)
(0.000114068 0.000757123 -2.60814e-15)
(0.000160444 0.0007812 -3.57741e-15)
(0.00019059 0.000748996 1.34921e-14)
(0.000217696 0.00070337 -1.80159e-14)
(0.000249687 0.000677592 -5.31818e-15)
(0.000269159 0.000636095 3.49425e-14)
(0.000284013 0.000590703 1.94615e-14)
(0.000296661 0.00054974 3.56104e-14)
(0.00029901 0.000503127 8.0087e-14)
(0.000294341 0.000456104 6.46432e-14)
(0.00028309 0.000411928 -1.52418e-13)
(0.000263925 0.000370291 -2.45579e-13)
(0.000239598 0.000334764 4.21381e-14)
(0.00021131 0.000307168 3.12385e-13)
(0.000181227 0.000288406 6.4059e-14)
(0.000150098 0.000284603 -1.77647e-13)
(0.000125794 0.000320744 -3.36332e-14)
(0.000114953 0.000400971 3.06996e-14)
(0.00014558 0.000519438 -6.90809e-14)
(0.0002373 0.000646687 -8.93614e-14)
(0.000456138 0.000815486 1.02196e-14)
(0.000952677 0.000894257 6.91402e-14)
(0.00150746 0.00036035 6.00087e-14)
(0.00140229 -0.000824496 -3.41412e-15)
(0.000310255 -0.00167689 3.58795e-14)
(-0.000965082 -0.00133285 6.4338e-15)
(-0.0012575 -0.000179814 6.16368e-14)
(-0.000567576 0.000567768 -4.58636e-14)
(0.000173133 0.000469448 -1.60005e-13)
(0.000449966 5.28368e-05 -5.1012e-14)
(0.00028215 -0.000228669 2.84616e-14)
(-6.44112e-05 -0.000192075 1.54512e-14)
(-0.000456034 5.46067e-05 -4.2883e-15)
(0.000448531 -0.000445412 5.11926e-15)
(-0.000841143 -0.000460053 1.82071e-14)
(-0.0015969 0.000698625 4.4811e-15)
(0.000918353 0.00334358 2.44285e-14)
(-1.77215e-06 0.000910182 -8.58968e-15)
(-3.81737e-05 0.000830062 -7.71754e-15)
(-7.22342e-05 0.000710345 -1.34545e-14)
(-0.000103054 0.000632536 -1.72112e-14)
(-0.000123908 0.000540225 2.98364e-14)
(-0.000147263 0.000488762 -4.30611e-14)
(-0.000184046 0.000468222 -1.72183e-14)
(-0.000224185 0.000447696 6.62147e-14)
(-0.000253635 0.000414163 -3.9934e-14)
(-0.000271489 0.000371868 7.04412e-14)
(-0.000281887 0.000328804 6.77592e-14)
(-0.000283473 0.000285862 4.37189e-14)
(-0.000276425 0.000243779 3.29597e-14)
(-0.000264532 0.000205169 4.9004e-14)
(-0.000248777 0.000170443 -1.39869e-14)
(-0.000229684 0.000139365 3.10025e-15)