/*--------------------------------*- C++ -*----------------------------------*\
| =========                 |                                                 |
| \\      /  F ield         | OpenFOAM: The Open Source CFD Toolbox           |
|  \\    /   O peration     | Version:  2312                                  |
|   \\  /    A nd           | Website:  www.openfoam.com                      |
|    \\/     M anipulation  |                                                 |
\*---------------------------------------------------------------------------*/
FoamFile
{
    version     2.0;
    format      ascii;
    arch        "LSB;label=32;scalar=64";
    class       volScalarField;
    location    "350";
    object      nuTilda;
}
// * * * * * * * * * * * * * * * * * * * * * * * * * * * * * * * * * * * * * //

dimensions      [0 2 -1 0 0 0 0];

internalField   nonuniform List<scalar> 
10720
(
6.29103e-05
6.61149e-05
7.02166e-05
7.53192e-05
8.16882e-05
8.9748e-05
0.000100163
0.000113486
0.000130976
0.000154085
0.000185125
0.000227465
0.000285642
0.000367534
0.000486591
0.000664693
0.000946323
0.00139549
0.00221761
0.00358954
0.00690256
0.0127117
0.0339192
0.0760505
0.0937355
0.0946655
0.095706
0.0992331
0.102745
0.10448
0.104456
0.103208
0.10084
0.0974096
0.0927903
0.0869089
0.0784457
0.0683151
0.0332542
6.00015e-05
5.73613e-05
5.46061e-05
5.19074e-05
4.91587e-05
4.63765e-05
4.36726e-05
4.15921e-05
4.34423e-05
4.72959e-05
5.2903e-05
6.0593e-05
7.10598e-05
8.55638e-05
0.000105907
0.000135071
0.000177816
0.000242221
0.000342401
0.000503207
0.000773828
0.00124215
0.00211758
0.00376979
0.0073278
0.0147224
0.0324763
0.0663198
0.0934683
0.105025
0.108433
0.109374
0.10947
0.108974
0.107973
0.106576
0.104431
0.101996
0.0924601
3.8071e-05
3.78508e-05
3.76496e-05
3.74809e-05
3.72851e-05
3.71032e-05
3.69672e-05
3.68471e-05
3.67951e-05
3.68408e-05
3.69025e-05
3.75062e-05
3.9646e-05
4.42937e-05
5.39102e-05
7.20439e-05
0.000107852
0.0001739
0.000318979
0.00058999
0.00131819
0.00282067
0.00706634
0.0204301
0.039493
0.0633378
0.0926096
0.123738
0.148748
0.162686
0.167972
0.168794
0.167211
0.163862
0.159351
0.153849
0.148539
0.139517
0.139932
3.82439e-05
3.84754e-05
3.86702e-05
3.89311e-05
3.91944e-05
3.94569e-05
3.97066e-05
3.99144e-05
3.97971e-05
3.95291e-05
3.91565e-05
3.86933e-05
3.81512e-05
3.75297e-05
3.67954e-05
3.59242e-05
3.48275e-05
3.34378e-05
3.15608e-05
2.89731e-05
2.5173e-05
1.98028e-05
1.18099e-05
4.78912e-06
7.59697e-06
0.000115487
0.000541118
0.00415649
0.014115
0.0287189
0.0437265
0.0550619
0.0618249
0.0656068
0.0680046
0.0699949
0.0717265
0.0752984
0.0784593
4.03656e-05
4.03972e-05
4.04298e-05
4.04649e-05
4.05078e-05
4.05557e-05
4.06103e-05
4.0674e-05
4.07488e-05
4.08361e-05
4.09393e-05
4.10654e-05
4.12039e-05
4.14547e-05
4.14581e-05
4.07835e-05
3.76619e-05
3.54411e-05
1.72666e-05
0.000118324
0.00026874
0.000204833
0.000336389
0.000992348
0.00325661
0.00759021
0.0155851
0.0309362
0.0573304
0.0937699
0.132803
0.164512
0.184927
0.196771
0.203467
0.20635
0.2076
0.201508
0.210306
4.03414e-05
4.03066e-05
4.028e-05
4.02404e-05
4.02064e-05
4.01697e-05
4.0137e-05
4.01111e-05
4.01199e-05
4.01475e-05
4.01837e-05
4.02278e-05
4.02816e-05
4.03416e-05
4.04091e-05
4.04834e-05
4.05674e-05
4.06632e-05
4.07771e-05
4.09147e-05
4.10898e-05
4.13122e-05
4.16238e-05
4.19507e-05
4.23859e-05
4.19224e-05
4.2074e-05
3.13484e-05
0.000107668
0.000790871
0.00301735
0.00754174
0.0142525
0.0224357
0.0311567
0.0396004
0.0470001
0.0536728
0.0631664
4.00344e-05
4.003e-05
4.00289e-05
4.00295e-05
4.00313e-05
4.00362e-05
4.00453e-05
4.00578e-05
4.00764e-05
4.01016e-05
4.01348e-05
4.01781e-05
4.02344e-05
4.03058e-05
4.03971e-05
4.05093e-05
4.02865e-05
3.96538e-05
3.60401e-05
2.55659e-05
7.94507e-06
4.31084e-05
6.77635e-05
0.00020371
0.000680454
0.0016339
0.000521642
0.00139084
0.00417074
0.0134431
0.0355573
0.0727385
0.118829
0.161352
0.193249
0.215389
0.231983
0.239185
0.255285
4.00357e-05
4.004e-05
4.00458e-05
4.00499e-05
4.00569e-05
4.00607e-05
4.00631e-05
4.00649e-05
4.00609e-05
4.00559e-05
4.00494e-05
4.00425e-05
4.00361e-05
4.00297e-05
4.00236e-05
4.00171e-05
4.00103e-05
4.00028e-05
3.99934e-05
3.9984e-05
3.9974e-05
3.99633e-05
3.99506e-05
3.99389e-05
3.99263e-05
3.99306e-05
3.9917e-05
4.00277e-05
3.98717e-05
3.97843e-05
3.83273e-05
3.60491e-05
0.000233108
0.00104663
0.00304145
0.00688859
0.0130926
0.0218333
0.0392165
4.00809e-05
4.00819e-05
4.00824e-05
4.00841e-05
4.0087e-05
4.00906e-05
4.00955e-05
4.01021e-05
4.01108e-05
4.01223e-05
4.01372e-05
4.01567e-05
4.01823e-05
4.0215e-05
4.02597e-05
4.03102e-05
4.03993e-05
4.04432e-05
4.08724e-05
4.08423e-05
3.41761e-05
1.41209e-05
7.10043e-06
3.13837e-06
0
0
0.000111675
0.000302223
0.000935817
0.000505404
0.0015949
0.0079572
0.029559
0.0707168
0.12415
0.175094
0.217226
0.248094
0.278323
4.0081e-05
4.00784e-05
4.00797e-05
4.00778e-05
4.00794e-05
4.00772e-05
4.00732e-05
4.00697e-05
4.00678e-05
4.00673e-05
4.00673e-05
4.00671e-05
4.00678e-05
4.00688e-05
4.00705e-05
4.00728e-05
4.00757e-05
4.00791e-05
4.00832e-05
4.00877e-05
4.00929e-05
4.00985e-05
4.01048e-05
4.01119e-05
4.0121e-05
4.01289e-05
4.01533e-05
4.01158e-05
4.03775e-05
3.92933e-05
4.43762e-05
2.15052e-05
6.27503e-05
0.000253292
9.30205e-05
0.00031339
0.00104196
0.00174131
0.0136975
4.00695e-05
4.00691e-05
4.00697e-05
4.00702e-05
4.00703e-05
4.00711e-05
4.00722e-05
4.00736e-05
4.00759e-05
4.0079e-05
4.00833e-05
4.00893e-05
4.00973e-05
4.01082e-05
4.01233e-05
4.0143e-05
4.01727e-05
4.01957e-05
4.02834e-05
4.0494e-05
4.06707e-05
3.95265e-05
3.30237e-05
1.61888e-05
7.6339e-06
5.32378e-06
2.59362e-06
0
0
0.000112022
0.000357868
0.001816
0.000370632
0.00873537
0.0380876
0.0933259
0.160462
0.224055
0.278385
4.00687e-05
4.00674e-05
4.00691e-05
4.00687e-05
4.00718e-05
4.00713e-05
4.00688e-05
4.00666e-05
4.00647e-05
4.00636e-05
4.00628e-05
4.00619e-05
4.00615e-05
4.00612e-05
4.00611e-05
4.00612e-05
4.00614e-05
4.00618e-05
4.00623e-05
4.00627e-05
4.00632e-05
4.00634e-05
4.00635e-05
4.00629e-05
4.00627e-05
4.00633e-05
4.00641e-05
4.00674e-05
4.00666e-05
4.00832e-05
4.0047e-05
4.02e-05
3.89104e-05
3.61291e-05
3.005e-05
7.78266e-05
0.000246997
0.000455251
0.00238361
4.007e-05
4.00704e-05
4.00707e-05
4.00708e-05
4.0071e-05
4.00712e-05
4.00715e-05
4.00721e-05
4.0073e-05
4.00743e-05
4.00762e-05
4.0079e-05
4.00828e-05
4.00881e-05
4.00954e-05
4.01057e-05
4.01196e-05
4.01355e-05
4.01513e-05
4.0181e-05
4.03553e-05
4.05298e-05
4.08044e-05
3.95472e-05
3.47732e-05
2.6786e-05
1.28417e-05
7.52331e-06
5.92567e-06
2.0327e-06
0
0
8.45228e-05
0.00205304
0.00167758
0.0217424
0.0782583
0.166253
0.252377
4.00691e-05
4.00672e-05
4.00679e-05
4.00673e-05
4.00703e-05
4.00702e-05
4.0068e-05
4.00659e-05
4.00642e-05
4.00633e-05
4.00626e-05
4.00622e-05
4.0062e-05
4.00621e-05
4.0062e-05
4.00621e-05
4.00624e-05
4.00628e-05
4.00635e-05
4.00642e-05
4.00652e-05
4.00662e-05
4.00675e-05
4.0069e-05
4.00708e-05
4.00732e-05
4.00762e-05
4.00801e-05
4.0085e-05
4.00911e-05
4.0099e-05
4.01175e-05
4.02456e-05
3.94403e-05
3.38307e-05
1.83664e-05
7.68824e-06
1.58776e-06
9.10243e-05
4.00692e-05
4.00695e-05
4.007e-05
4.00699e-05
4.00696e-05
4.00694e-05
4.00691e-05
4.00688e-05
4.00687e-05
4.00687e-05
4.00689e-05
4.00693e-05
4.007e-05
4.00711e-05
4.00727e-05
4.00753e-05
4.00789e-05
4.00839e-05
4.0088e-05
4.00916e-05
4.01041e-05
4.01274e-05
4.02623e-05
4.08016e-05
4.12321e-05
4.07742e-05
3.88327e-05
3.42603e-05
2.87172e-05
9.72011e-06
7.28492e-06
1.56887e-06
0
0
0.000388094
0.00542242
0.0161709
0.0904908
0.200108
4.00681e-05
4.0066e-05
4.0066e-05
4.00652e-05
4.00682e-05
4.00685e-05
4.00668e-05
4.00649e-05
4.00634e-05
4.00625e-05
4.00619e-05
4.00616e-05
4.00615e-05
4.00617e-05
4.00618e-05
4.00621e-05
4.00622e-05
4.00622e-05
4.00623e-05
4.00625e-05
4.00628e-05
4.0063e-05
4.00633e-05
4.00636e-05
4.00638e-05
4.00642e-05
4.00646e-05
4.0065e-05
4.00655e-05
4.00657e-05
4.00667e-05
4.00622e-05
4.00828e-05
3.99989e-05
4.02335e-05
3.79616e-05
3.26108e-05
8.98077e-06
2.17111e-05
4.00691e-05
4.00693e-05
4.00696e-05
4.00692e-05
4.00689e-05
4.00684e-05
4.00679e-05
4.00677e-05
4.00675e-05
4.00674e-05
4.00674e-05
4.00676e-05
4.0068e-05
4.00688e-05
4.00699e-05
4.00717e-05
4.00743e-05
4.00779e-05
4.00814e-05
4.00847e-05
4.00861e-05
4.0092e-05
4.00667e-05
4.01094e-05
4.04047e-05
4.08749e-05
4.14349e-05
4.18641e-05
4.17388e-05
3.81432e-05
3.29879e-05
7.37076e-06
5.77285e-06
0
0
0
0.00442061
0.0305922
0.13291
4.0068e-05
4.00657e-05
4.0065e-05
4.00639e-05
4.00668e-05
4.00673e-05
4.0066e-05
4.00642e-05
4.00629e-05
4.00621e-05
4.00616e-05
4.00614e-05
4.00613e-05
4.00614e-05
4.00616e-05
4.00619e-05
4.00621e-05
4.00624e-05
4.00625e-05
4.00625e-05
4.00627e-05
4.00629e-05
4.00632e-05
4.00635e-05
4.00639e-05
4.00646e-05
4.00655e-05
4.00667e-05
4.00683e-05
4.00703e-05
4.00728e-05
4.00756e-05
4.0081e-05
4.0081e-05
4.01347e-05
4.02747e-05
4.10401e-05
3.70421e-05
5.55066e-06
4.00689e-05
4.00689e-05
4.00689e-05
4.00684e-05
4.00679e-05
4.00673e-05
4.00668e-05
4.00664e-05
4.0066e-05
4.00656e-05
4.00653e-05
4.00651e-05
4.0065e-05
4.00649e-05
4.00648e-05
4.00648e-05
4.0065e-05
4.00651e-05
4.00655e-05
4.00667e-05
4.00683e-05
4.00739e-05
4.00753e-05
4.00487e-05
4.00385e-05
4.01047e-05
4.03289e-05
4.078e-05
4.14192e-05
4.21059e-05
4.26032e-05
3.82861e-05
2.58904e-05
7.88987e-06
0
0
9.93903e-06
0.000459011
0.072446
4.0068e-05
4.00656e-05
4.00644e-05
4.0063e-05
4.00656e-05
4.00662e-05
4.00652e-05
4.00636e-05
4.00625e-05
4.00617e-05
4.00614e-05
4.00611e-05
4.0061e-05
4.00611e-05
4.00612e-05
4.00615e-05
4.00618e-05
4.00621e-05
4.00624e-05
4.00627e-05
4.00629e-05
4.00631e-05
4.00631e-05
4.00631e-05
4.00632e-05
4.00634e-05
4.00637e-05
4.00642e-05
4.00648e-05
4.00656e-05
4.00664e-05
4.00677e-05
4.00671e-05
4.0077e-05
4.00392e-05
4.02016e-05
3.95121e-05
4.44728e-05
2.14506e-05
4.00687e-05
4.00684e-05
4.00682e-05
4.00675e-05
4.00669e-05
4.00663e-05
4.00657e-05
4.00654e-05
4.0065e-05
4.00648e-05
4.00646e-05
4.00645e-05
4.00644e-05
4.00645e-05
4.00647e-05
4.00651e-05
4.00657e-05
4.00666e-05
4.00677e-05
4.00688e-05
4.00696e-05
4.00707e-05
4.00753e-05
4.00747e-05
4.00572e-05
4.00301e-05
4.00169e-05
4.00745e-05
4.02413e-05
4.06933e-05
4.1432e-05
4.27202e-05
4.19699e-05
3.3014e-05
8.6734e-06
0
0
0.000803352
0.0333216
4.0068e-05
4.00657e-05
4.00641e-05
4.00623e-05
4.00647e-05
4.00654e-05
4.00645e-05
4.0063e-05
4.00621e-05
4.00615e-05
4.00612e-05
4.00609e-05
4.00607e-05
4.00607e-05
4.00608e-05
4.00611e-05
4.00614e-05
4.00617e-05
4.00621e-05
4.00624e-05
4.00627e-05
4.0063e-05
4.00632e-05
4.00634e-05
4.00635e-05
4.00636e-05
4.00638e-05
4.00643e-05
4.00649e-05
4.00657e-05
4.00666e-05
4.00682e-05
4.00682e-05
4.00766e-05
4.00481e-05
4.01788e-05
3.96023e-05
4.19157e-05
3.65164e-05
4.00683e-05
4.00678e-05
4.00674e-05
4.00667e-05
4.0066e-05
4.00653e-05
4.00648e-05
4.00644e-05
4.00641e-05
4.00639e-05
4.00637e-05
4.00635e-05
4.00634e-05
4.00633e-05
4.00633e-05
4.00634e-05
4.00636e-05
4.00638e-05
4.00642e-05
4.0065e-05
4.00661e-05
4.00673e-05
4.00695e-05
4.00737e-05
4.00751e-05
4.00684e-05
4.00489e-05
4.00254e-05
4.00057e-05
4.00523e-05
4.01853e-05
4.07987e-05
4.2022e-05
4.29603e-05
3.56446e-05
7.82791e-06
0
0.000287323
0.0131197
4.0068e-05
4.00658e-05
4.00639e-05
4.00619e-05
4.0064e-05
4.00647e-05
4.00639e-05
4.00626e-05
4.00617e-05
4.00612e-05
4.00609e-05
4.00606e-05
4.00604e-05
4.00603e-05
4.00604e-05
4.00606e-05
4.00608e-05
4.00612e-05
4.00616e-05
4.0062e-05
4.00624e-05
4.00627e-05
4.00631e-05
4.00634e-05
4.00637e-05
4.00638e-05
4.00639e-05
4.0064e-05
4.00643e-05
4.00648e-05
4.00653e-05
4.00661e-05
4.00666e-05
4.00695e-05
4.00631e-05
4.00953e-05
3.99848e-05
4.02527e-05
4.01791e-05
4.00679e-05
4.00671e-05
4.00665e-05
4.00658e-05
4.00651e-05
4.00645e-05
4.0064e-05
4.00637e-05
4.00634e-05
4.00632e-05
4.00631e-05
4.0063e-05
4.0063e-05
4.0063e-05
4.0063e-05
4.00631e-05
4.00633e-05
4.00637e-05
4.00641e-05
4.00647e-05
4.00655e-05
4.00663e-05
4.00674e-05
4.00695e-05
4.00727e-05
4.00756e-05
4.0075e-05
4.00681e-05
4.00515e-05
4.00281e-05
3.99957e-05
4.00073e-05
4.03366e-05
4.13182e-05
4.411e-05
3.14015e-05
1.22148e-06
9.97404e-05
0.00434399
4.00678e-05
4.00659e-05
4.00639e-05
4.00616e-05
4.00634e-05
4.0064e-05
4.00634e-05
4.00622e-05
4.00614e-05
4.00609e-05
4.00606e-05
4.00603e-05
4.006e-05
4.00599e-05
4.00599e-05
4.00601e-05
4.00603e-05
4.00607e-05
4.00611e-05
4.00615e-05
4.00619e-05
4.00624e-05
4.00628e-05
4.00632e-05
4.00636e-05
4.00638e-05
4.00639e-05
4.0064e-05
4.00642e-05
4.00644e-05
4.00649e-05
4.00655e-05
4.00663e-05
4.0067e-05
4.00689e-05
4.00653e-05
4.00914e-05
3.9972e-05
4.03496e-05
4.00673e-05
4.00664e-05
4.00658e-05
4.00651e-05
4.00644e-05
4.00638e-05
4.00633e-05
4.00631e-05
4.00628e-05
4.00627e-05
4.00627e-05
4.00627e-05
4.00626e-05
4.00626e-05
4.00627e-05
4.00628e-05
4.00629e-05
4.00631e-05
4.00633e-05
4.00638e-05
4.00644e-05
4.00652e-05
4.00661e-05
4.00673e-05
4.00693e-05
4.00721e-05
4.00753e-05
4.00778e-05
4.00785e-05
4.00732e-05
4.00589e-05
4.00095e-05
3.99687e-05
4.00255e-05
4.10839e-05
4.61794e-05
1.65651e-06
2.67943e-05
0.00111156
4.00676e-05
4.00659e-05
4.00638e-05
4.00614e-05
4.00629e-05
4.00635e-05
4.00629e-05
4.00618e-05
4.0061e-05
4.00605e-05
4.00602e-05
4.006e-05
4.00597e-05
4.00596e-05
4.00595e-05
4.00596e-05
4.00599e-05
4.00602e-05
4.00606e-05
4.0061e-05
4.00615e-05
4.0062e-05
4.00624e-05
4.00629e-05
4.00633e-05
4.00637e-05
4.00639e-05
4.0064e-05
4.00641e-05
4.00642e-05
4.00644e-05
4.00648e-05
4.00654e-05
4.00658e-05
4.00677e-05
4.0064e-05
4.00834e-05
4.00255e-05
4.01458e-05
4.00667e-05
4.00657e-05
4.00651e-05
4.00644e-05
4.00637e-05
4.00631e-05
4.00628e-05
4.00626e-05
4.00625e-05
4.00624e-05
4.00625e-05
4.00625e-05
4.00625e-05
4.00626e-05
4.00626e-05
4.00627e-05
4.00628e-05
4.0063e-05
4.00633e-05
4.00636e-05
4.0064e-05
4.00646e-05
4.00654e-05
4.00663e-05
4.00676e-05
4.00694e-05
4.00719e-05
4.00749e-05
4.00786e-05
4.00823e-05
4.00854e-05
4.00824e-05
4.0024e-05
4.00712e-05
3.91803e-05
4.5245e-05
3.19797e-05
3.33738e-06
9.73561e-05
4.00672e-05
4.00659e-05
4.00638e-05
4.00613e-05
4.00625e-05
4.0063e-05
4.00625e-05
4.00614e-05
4.00607e-05
4.00602e-05
4.00599e-05
4.00596e-05
4.00594e-05
4.00592e-05
4.00591e-05
4.00592e-05
4.00594e-05
4.00597e-05
4.00601e-05
4.00605e-05
4.0061e-05
4.00615e-05
4.0062e-05
4.00625e-05
4.0063e-05
4.00634e-05
4.00637e-05
4.00639e-05
4.0064e-05
4.00641e-05
4.00642e-05
4.00645e-05
4.00648e-05
4.00653e-05
4.00662e-05
4.00659e-05
4.00704e-05
4.0064e-05
4.00736e-05
4.00661e-05
4.00651e-05
4.00644e-05
4.00637e-05
4.00631e-05
4.00626e-05
4.00623e-05
4.00623e-05
4.00622e-05
4.00623e-05
4.00624e-05
4.00625e-05
4.00626e-05
4.00626e-05
4.00627e-05
4.00628e-05
4.00629e-05
4.0063e-05
4.00632e-05
4.00635e-05
4.00638e-05
4.00643e-05
4.00649e-05
4.00657e-05
4.00667e-05
4.00681e-05
4.00699e-05
4.00722e-05
4.00749e-05
4.00788e-05
4.00826e-05
4.00964e-05
4.00665e-05
4.01828e-05
3.95242e-05
4.06629e-05
4.54574e-05
1.99858e-06
2.24244e-05
4.00668e-05
4.00657e-05
4.00637e-05
4.00612e-05
4.00622e-05
4.00626e-05
4.00621e-05
4.00611e-05
4.00604e-05
4.00599e-05
4.00596e-05
4.00593e-05
4.0059e-05
4.00588e-05
4.00588e-05
4.00588e-05
4.0059e-05
4.00593e-05
4.00596e-05
4.006e-05
4.00605e-05
4.0061e-05
4.00616e-05
4.00621e-05
4.00626e-05
4.00631e-05
4.00635e-05
4.00638e-05
4.0064e-05
4.00641e-05
4.00642e-05
4.00643e-05
4.00645e-05
4.00648e-05
4.00653e-05
4.0066e-05
4.00664e-05
4.00708e-05
4.00651e-05
4.00655e-05
4.00646e-05
4.00638e-05
4.00631e-05
4.00626e-05
4.00622e-05
4.0062e-05
4.00621e-05
4.00621e-05
4.00623e-05
4.00624e-05
4.00625e-05
4.00626e-05
4.00628e-05
4.00628e-05
4.00629e-05
4.0063e-05
4.00632e-05
4.00633e-05
4.00636e-05
4.00638e-05
4.00642e-05
4.00647e-05
4.00653e-05
4.00661e-05
4.00673e-05
4.00688e-05
4.00707e-05
4.00728e-05
4.00757e-05
4.0078e-05
4.00871e-05
4.00846e-05
4.01072e-05
4.02261e-05
3.84382e-05
4.8975e-05
3.16349e-06
8.82963e-08
4.00663e-05
4.00655e-05
4.00636e-05
4.00611e-05
4.00618e-05
4.00622e-05
4.00617e-05
4.00608e-05
4.00601e-05
4.00595e-05
4.00592e-05
4.0059e-05
4.00587e-05
4.00585e-05
4.00584e-05
4.00585e-05
4.00586e-05
4.00589e-05
4.00592e-05
4.00596e-05
4.006e-05
4.00606e-05
4.00611e-05
4.00617e-05
4.00622e-05
4.00627e-05
4.00632e-05
4.00635e-05
4.00638e-05
4.0064e-05
4.00641e-05
4.00642e-05
4.00643e-05
4.00645e-05
4.00648e-05
4.00654e-05
4.00656e-05
4.00692e-05
4.00668e-05
4.0065e-05
4.0064e-05
4.00632e-05
4.00626e-05
4.00622e-05
4.00619e-05
4.00619e-05
4.0062e-05
4.00621e-05
4.00623e-05
4.00625e-05
4.00626e-05
4.00628e-05
4.00629e-05
4.0063e-05
4.00631e-05
4.00632e-05
4.00634e-05
4.00635e-05
4.00637e-05
4.00639e-05
4.00642e-05
4.00646e-05
4.00651e-05
4.00658e-05
4.00668e-05
4.00681e-05
4.00697e-05
4.00716e-05
4.00738e-05
4.00764e-05
4.00783e-05
4.00949e-05
4.00305e-05
4.04485e-05
3.85257e-05
4.5472e-05
2.79029e-05
3.68997e-06
4.00658e-05
4.00653e-05
4.00635e-05
4.00611e-05
4.00616e-05
4.00618e-05
4.00613e-05
4.00605e-05
4.00598e-05
4.00592e-05
4.00589e-05
4.00586e-05
4.00584e-05
4.00582e-05
4.00581e-05
4.00582e-05
4.00583e-05
4.00585e-05
4.00588e-05
4.00592e-05
4.00596e-05
4.00601e-05
4.00607e-05
4.00613e-05
4.00618e-05
4.00624e-05
4.00628e-05
4.00633e-05
4.00636e-05
4.00639e-05
4.00641e-05
4.00642e-05
4.00642e-05
4.00643e-05
4.00645e-05
4.00649e-05
4.00653e-05
4.00676e-05
4.00672e-05
4.00645e-05
4.00635e-05
4.00627e-05
4.00622e-05
4.00619e-05
4.00617e-05
4.00618e-05
4.0062e-05
4.00621e-05
4.00624e-05
4.00626e-05
4.00628e-05
4.00629e-05
4.00631e-05
4.00632e-05
4.00633e-05
4.00634e-05
4.00635e-05
4.00637e-05
4.00638e-05
4.0064e-05
4.00643e-05
4.00646e-05
4.0065e-05
4.00656e-05
4.00664e-05
4.00675e-05
4.00689e-05
4.00706e-05
4.00725e-05
4.00755e-05
4.00746e-05
4.00947e-05
4.00257e-05
4.03265e-05
3.93836e-05
4.15263e-05
4.1365e-05
1.33043e-05
4.00653e-05
4.0065e-05
4.00633e-05
4.0061e-05
4.00613e-05
4.00615e-05
4.0061e-05
4.00602e-05
4.00595e-05
4.00589e-05
4.00586e-05
4.00583e-05
4.0058e-05
4.00579e-05
4.00578e-05
4.00579e-05
4.0058e-05
4.00582e-05
4.00585e-05
4.00588e-05
4.00592e-05
4.00597e-05
4.00603e-05
4.00608e-05
4.00614e-05
4.0062e-05
4.00625e-05
4.00629e-05
4.00633e-05
4.00637e-05
4.00639e-05
4.00641e-05
4.00642e-05
4.00642e-05
4.00644e-05
4.00646e-05
4.0065e-05
4.00668e-05
4.00667e-05
4.0064e-05
4.0063e-05
4.00622e-05
4.00618e-05
4.00616e-05
4.00616e-05
4.00617e-05
4.0062e-05
4.00622e-05
4.00624e-05
4.00627e-05
4.00629e-05
4.00631e-05
4.00632e-05
4.00634e-05
4.00635e-05
4.00636e-05
4.00637e-05
4.00639e-05
4.0064e-05
4.00642e-05
4.00644e-05
4.00647e-05
4.0065e-05
4.00655e-05
4.00662e-05
4.00671e-05
4.00683e-05
4.00698e-05
4.00715e-05
4.00743e-05
4.0074e-05
4.00872e-05
4.00553e-05
4.01573e-05
4.00161e-05
3.96356e-05
4.40507e-05
2.83387e-05
4.00648e-05
4.00646e-05
4.00632e-05
4.00609e-05
4.0061e-05
4.00611e-05
4.00606e-05
4.00598e-05
4.00592e-05
4.00586e-05
4.00583e-05
4.0058e-05
4.00577e-05
4.00576e-05
4.00575e-05
4.00576e-05
4.00577e-05
4.00579e-05
4.00581e-05
4.00585e-05
4.00589e-05
4.00593e-05
4.00599e-05
4.00604e-05
4.0061e-05
4.00615e-05
4.00621e-05
4.00625e-05
4.0063e-05
4.00634e-05
4.00637e-05
4.0064e-05
4.00641e-05
4.00642e-05
4.00643e-05
4.00644e-05
4.00647e-05
4.00663e-05
4.00662e-05
4.00635e-05
4.00626e-05
4.00618e-05
4.00616e-05
4.00615e-05
4.00615e-05
4.00617e-05
4.0062e-05
4.00623e-05
4.00625e-05
4.00628e-05
4.0063e-05
4.00632e-05
4.00634e-05
4.00636e-05
4.00637e-05
4.00638e-05
4.0064e-05
4.00641e-05
4.00643e-05
4.00644e-05
4.00646e-05
4.00649e-05
4.00652e-05
4.00656e-05
4.00662e-05
4.00669e-05
4.0068e-05
4.00693e-05
4.00707e-05
4.0073e-05
4.00742e-05
4.00795e-05
4.00788e-05
4.00678e-05
4.02352e-05
3.93631e-05
4.26171e-05
3.70293e-05
4.00643e-05
4.00643e-05
4.00629e-05
4.00608e-05
4.00608e-05
4.00608e-05
4.00603e-05
4.00595e-05
4.00589e-05
4.00584e-05
4.0058e-05
4.00577e-05
4.00575e-05
4.00573e-05
4.00573e-05
4.00573e-05
4.00575e-05
4.00576e-05
4.00579e-05
4.00582e-05
4.00585e-05
4.0059e-05
4.00595e-05
4.006e-05
4.00606e-05
4.00611e-05
4.00616e-05
4.00621e-05
4.00626e-05
4.0063e-05
4.00634e-05
4.00637e-05
4.0064e-05
4.00641e-05
4.00642e-05
4.00642e-05
4.00644e-05
4.00658e-05
4.00658e-05
4.00631e-05
4.00622e-05
4.00615e-05
4.00614e-05
4.00614e-05
4.00615e-05
4.00618e-05
4.0062e-05
4.00623e-05
4.00626e-05
4.00629e-05
4.00631e-05
4.00634e-05
4.00636e-05
4.00637e-05
4.00639e-05
4.0064e-05
4.00642e-05
4.00643e-05
4.00645e-05
4.00646e-05
4.00648e-05
4.00651e-05
4.00653e-05
4.00657e-05
4.00662e-05
4.00669e-05
4.00677e-05
4.00689e-05
4.00702e-05
4.00719e-05
4.0074e-05
4.00752e-05
4.00859e-05
4.00498e-05
4.02182e-05
3.96688e-05
4.09942e-05
4.01579e-05
4.00639e-05
4.00639e-05
4.00627e-05
4.00606e-05
4.00605e-05
4.00604e-05
4.00599e-05
4.00592e-05
4.00586e-05
4.00581e-05
4.00577e-05
4.00574e-05
4.00572e-05
4.00571e-05
4.00571e-05
4.00571e-05
4.00572e-05
4.00573e-05
4.00576e-05
4.00578e-05
4.00582e-05
4.00586e-05
4.00591e-05
4.00596e-05
4.00601e-05
4.00607e-05
4.00612e-05
4.00617e-05
4.00622e-05
4.00627e-05
4.00631e-05
4.00635e-05
4.00638e-05
4.0064e-05
4.00642e-05
4.00642e-05
4.00643e-05
4.00654e-05
4.00654e-05
4.00627e-05
4.00619e-05
4.00612e-05
4.00612e-05
4.00613e-05
4.00615e-05
4.00618e-05
4.00621e-05
4.00624e-05
4.00627e-05
4.0063e-05
4.00633e-05
4.00635e-05
4.00637e-05
4.00639e-05
4.00641e-05
4.00643e-05
4.00644e-05
4.00646e-05
4.00647e-05
4.00649e-05
4.00651e-05
4.00653e-05
4.00655e-05
4.00659e-05
4.00663e-05
4.00669e-05
4.00676e-05
4.00686e-05
4.00699e-05
4.00713e-05
4.00734e-05
4.00738e-05
4.00836e-05
4.00607e-05
4.01456e-05
3.99561e-05
4.01923e-05
4.06392e-05
4.00634e-05
4.00635e-05
4.00624e-05
4.00605e-05
4.00602e-05
4.00601e-05
4.00596e-05
4.00589e-05
4.00583e-05
4.00578e-05
4.00574e-05
4.00571e-05
4.0057e-05
4.00569e-05
4.00568e-05
4.00569e-05
4.00569e-05
4.00571e-05
4.00573e-05
4.00575e-05
4.00578e-05
4.00582e-05
4.00587e-05
4.00592e-05
4.00597e-05
4.00602e-05
4.00607e-05
4.00613e-05
4.00618e-05
4.00623e-05
4.00627e-05
4.00631e-05
4.00635e-05
4.00638e-05
4.0064e-05
4.00641e-05
4.00642e-05
4.00651e-05
4.00651e-05
4.00623e-05
4.00616e-05
4.00611e-05
4.00611e-05
4.00613e-05
4.00615e-05
4.00618e-05
4.00621e-05
4.00625e-05
4.00628e-05
4.00631e-05
4.00634e-05
4.00637e-05
4.00639e-05
4.00641e-05
4.00643e-05
4.00645e-05
4.00647e-05
4.00648e-05
4.0065e-05
4.00652e-05
4.00654e-05
4.00656e-05
4.00658e-05
4.00661e-05
4.00665e-05
4.0067e-05
4.00676e-05
4.00685e-05
4.00696e-05
4.00708e-05
4.00727e-05
4.00737e-05
4.00793e-05
4.00729e-05
4.00963e-05
4.00857e-05
3.99892e-05
4.04019e-05
4.0063e-05
4.00632e-05
4.00622e-05
4.00603e-05
4.006e-05
4.00598e-05
4.00593e-05
4.00585e-05
4.00579e-05
4.00575e-05
4.00571e-05
4.00569e-05
4.00567e-05
4.00566e-05
4.00566e-05
4.00566e-05
4.00567e-05
4.00568e-05
4.0057e-05
4.00572e-05
4.00575e-05
4.00578e-05
4.00583e-05
4.00588e-05
4.00593e-05
4.00598e-05
4.00603e-05
4.00608e-05
4.00613e-05
4.00618e-05
4.00623e-05
4.00628e-05
4.00632e-05
4.00636e-05
4.00638e-05
4.0064e-05
4.00641e-05
4.00648e-05
4.00649e-05
4.0062e-05
4.00614e-05
4.00609e-05
4.0061e-05
4.00612e-05
4.00614e-05
4.00618e-05
4.00622e-05
4.00625e-05
4.00629e-05
4.00632e-05
4.00635e-05
4.00638e-05
4.00641e-05
4.00643e-05
4.00645e-05
4.00647e-05
4.00649e-05
4.00651e-05
4.00653e-05
4.00655e-05
4.00656e-05
4.00658e-05
4.00661e-05
4.00663e-05
4.00667e-05
4.00671e-05
4.00677e-05
4.00685e-05
4.00694e-05
4.00706e-05
4.00721e-05
4.00736e-05
4.00764e-05
4.00784e-05
4.00778e-05
4.01107e-05
4.00119e-05
4.01807e-05
4.00626e-05
4.00628e-05
4.00619e-05
4.00601e-05
4.00597e-05
4.00594e-05
4.00589e-05
4.00582e-05
4.00576e-05
4.00572e-05
4.00568e-05
4.00566e-05
4.00564e-05
4.00563e-05
4.00563e-05
4.00563e-05
4.00564e-05
4.00565e-05
4.00566e-05
4.00569e-05
4.00571e-05
4.00575e-05
4.00579e-05
4.00583e-05
4.00588e-05
4.00593e-05
4.00598e-05
4.00603e-05
4.00608e-05
4.00614e-05
4.00619e-05
4.00624e-05
4.00628e-05
4.00633e-05
4.00636e-05
4.00638e-05
4.00639e-05
4.00645e-05
4.00646e-05
4.00617e-05
4.00611e-05
4.00607e-05
4.00609e-05
4.00612e-05
4.00614e-05
4.00618e-05
4.00622e-05
4.00626e-05
4.0063e-05
4.00633e-05
4.00637e-05
4.0064e-05
4.00642e-05
4.00645e-05
4.00647e-05
4.00649e-05
4.00652e-05
4.00654e-05
4.00655e-05
4.00657e-05
4.00659e-05
4.00661e-05
4.00664e-05
4.00666e-05
4.00669e-05
4.00673e-05
4.00679e-05
4.00685e-05
4.00694e-05
4.00704e-05
4.00718e-05
4.00734e-05
4.0075e-05
4.0079e-05
4.00755e-05
4.01001e-05
4.00611e-05
4.00932e-05
4.00622e-05
4.00624e-05
4.00616e-05
4.00599e-05
4.00594e-05
4.00591e-05
4.00585e-05
4.00578e-05
4.00573e-05
4.00568e-05
4.00565e-05
4.00563e-05
4.00561e-05
4.0056e-05
4.0056e-05
4.0056e-05
4.00561e-05
4.00562e-05
4.00563e-05
4.00565e-05
4.00568e-05
4.00571e-05
4.00575e-05
4.00579e-05
4.00584e-05
4.00589e-05
4.00593e-05
4.00599e-05
4.00604e-05
4.00609e-05
4.00614e-05
4.0062e-05
4.00625e-05
4.00629e-05
4.00633e-05
4.00636e-05
4.00637e-05
4.00641e-05
4.00643e-05
4.00614e-05
4.00609e-05
4.00606e-05
4.00609e-05
4.00611e-05
4.00614e-05
4.00619e-05
4.00623e-05
4.00627e-05
4.00631e-05
4.00634e-05
4.00638e-05
4.00641e-05
4.00644e-05
4.00647e-05
4.00649e-05
4.00652e-05
4.00654e-05
4.00656e-05
4.00658e-05
4.0066e-05
4.00662e-05
4.00665e-05
4.00667e-05
4.00669e-05
4.00672e-05
4.00676e-05
4.00681e-05
4.00687e-05
4.00694e-05
4.00704e-05
4.00715e-05
4.00731e-05
4.00745e-05
4.00779e-05
4.00772e-05
4.00882e-05
4.00847e-05
4.00804e-05
4.00618e-05
4.0062e-05
4.00612e-05
4.00596e-05
4.00591e-05
4.00587e-05
4.00582e-05
4.00575e-05
4.00569e-05
4.00565e-05
4.00562e-05
4.00559e-05
4.00558e-05
4.00557e-05
4.00557e-05
4.00557e-05
4.00558e-05
4.00559e-05
4.0056e-05
4.00562e-05
4.00564e-05
4.00567e-05
4.00571e-05
4.00575e-05
4.0058e-05
4.00584e-05
4.00589e-05
4.00594e-05
4.00599e-05
4.00604e-05
4.0061e-05
4.00615e-05
4.0062e-05
4.00625e-05
4.0063e-05
4.00634e-05
4.00635e-05
4.00638e-05
4.00641e-05
4.00611e-05
4.00607e-05
4.00605e-05
4.00608e-05
4.00611e-05
4.00614e-05
4.00619e-05
4.00623e-05
4.00627e-05
4.00632e-05
4.00636e-05
4.00639e-05
4.00643e-05
4.00646e-05
4.00649e-05
4.00651e-05
4.00654e-05
4.00656e-05
4.00659e-05
4.00661e-05
4.00663e-05
4.00665e-05
4.00668e-05
4.0067e-05
4.00672e-05
4.00675e-05
4.00679e-05
4.00683e-05
4.00689e-05
4.00696e-05
4.00704e-05
4.00715e-05
4.00728e-05
4.00743e-05
4.00768e-05
4.00783e-05
4.00826e-05
4.00886e-05
4.00868e-05
4.00615e-05
4.00617e-05
4.00609e-05
4.00594e-05
4.00588e-05
4.00584e-05
4.00578e-05
4.00571e-05
4.00565e-05
4.00561e-05
4.00558e-05
4.00556e-05
4.00555e-05
4.00554e-05
4.00554e-05
4.00554e-05
4.00555e-05
4.00556e-05
4.00557e-05
4.00559e-05
4.00561e-05
4.00564e-05
4.00567e-05
4.00571e-05
4.00575e-05
4.00579e-05
4.00584e-05
4.00589e-05
4.00594e-05
4.00599e-05
4.00605e-05
4.0061e-05
4.00616e-05
4.00621e-05
4.00626e-05
4.0063e-05
4.00633e-05
4.00635e-05
4.00639e-05
4.00608e-05
4.00605e-05
4.00603e-05
4.00607e-05
4.0061e-05
4.00614e-05
4.00619e-05
4.00624e-05
4.00628e-05
4.00633e-05
4.00637e-05
4.0064e-05
4.00644e-05
4.00647e-05
4.0065e-05
4.00653e-05
4.00656e-05
4.00659e-05
4.00661e-05
4.00664e-05
4.00666e-05
4.00668e-05
4.00671e-05
4.00673e-05
4.00676e-05
4.00679e-05
4.00682e-05
4.00686e-05
4.00691e-05
4.00697e-05
4.00705e-05
4.00715e-05
4.00727e-05
4.00741e-05
4.00761e-05
4.00783e-05
4.0081e-05
4.0086e-05
4.00911e-05
4.00611e-05
4.00613e-05
4.00606e-05
4.00591e-05
4.00585e-05
4.0058e-05
4.00574e-05
4.00567e-05
4.00561e-05
4.00558e-05
4.00555e-05
4.00553e-05
4.00551e-05
4.00551e-05
4.00551e-05
4.00551e-05
4.00551e-05
4.00552e-05
4.00553e-05
4.00555e-05
4.00557e-05
4.0056e-05
4.00563e-05
4.00566e-05
4.0057e-05
4.00575e-05
4.00579e-05
4.00584e-05
4.00589e-05
4.00594e-05
4.00599e-05
4.00605e-05
4.00611e-05
4.00616e-05
4.00621e-05
4.00626e-05
4.0063e-05
4.00631e-05
4.00636e-05
4.00606e-05
4.00603e-05
4.00602e-05
4.00606e-05
4.0061e-05
4.00614e-05
4.00619e-05
4.00624e-05
4.00629e-05
4.00633e-05
4.00638e-05
4.00642e-05
4.00645e-05
4.00649e-05
4.00652e-05
4.00655e-05
4.00658e-05
4.00661e-05
4.00664e-05
4.00666e-05
4.00669e-05
4.00672e-05
4.00674e-05
4.00677e-05
4.00679e-05
4.00682e-05
4.00685e-05
4.00689e-05
4.00694e-05
4.00699e-05
4.00707e-05
4.00716e-05
4.00727e-05
4.0074e-05
4.00757e-05
4.00779e-05
4.00807e-05
4.00833e-05
4.00913e-05
4.00608e-05
4.00609e-05
4.00602e-05
4.00588e-05
4.00581e-05
4.00576e-05
4.0057e-05
4.00563e-05
4.00557e-05
4.00554e-05
4.00551e-05
4.00549e-05
4.00548e-05
4.00547e-05
4.00547e-05
4.00547e-05
4.00548e-05
4.00549e-05
4.0055e-05
4.00551e-05
4.00553e-05
4.00555e-05
4.00558e-05
4.00562e-05
4.00566e-05
4.0057e-05
4.00574e-05
4.00578e-05
4.00583e-05
4.00588e-05
4.00594e-05
4.006e-05
4.00605e-05
4.00611e-05
4.00617e-05
4.00622e-05
4.00626e-05
4.00628e-05
4.00633e-05
4.00603e-05
4.00601e-05
4.00601e-05
4.00605e-05
4.00609e-05
4.00614e-05
4.00619e-05
4.00624e-05
4.00629e-05
4.00634e-05
4.00639e-05
4.00643e-05
4.00647e-05
4.0065e-05
4.00654e-05
4.00657e-05
4.0066e-05
4.00663e-05
4.00666e-05
4.00669e-05
4.00672e-05
4.00675e-05
4.00677e-05
4.0068e-05
4.00683e-05
4.00685e-05
4.00689e-05
4.00692e-05
4.00697e-05
4.00702e-05
4.00709e-05
4.00717e-05
4.00727e-05
4.0074e-05
4.00756e-05
4.00774e-05
4.00804e-05
4.00819e-05
4.00899e-05
4.00604e-05
4.00606e-05
4.00599e-05
4.00585e-05
4.00578e-05
4.00572e-05
4.00565e-05
4.00558e-05
4.00553e-05
4.00549e-05
4.00547e-05
4.00545e-05
4.00544e-05
4.00543e-05
4.00543e-05
4.00543e-05
4.00544e-05
4.00545e-05
4.00546e-05
4.00547e-05
4.00549e-05
4.00551e-05
4.00554e-05
4.00557e-05
4.00561e-05
4.00564e-05
4.00568e-05
4.00573e-05
4.00577e-05
4.00583e-05
4.00588e-05
4.00594e-05
4.00599e-05
4.00605e-05
4.00611e-05
4.00617e-05
4.00622e-05
4.00624e-05
4.00631e-05
4.006e-05
4.00599e-05
4.00599e-05
4.00604e-05
4.00609e-05
4.00613e-05
4.00619e-05
4.00625e-05
4.0063e-05
4.00635e-05
4.00639e-05
4.00644e-05
4.00648e-05
4.00652e-05
4.00655e-05
4.00659e-05
4.00662e-05
4.00666e-05
4.00669e-05
4.00672e-05
4.00675e-05
4.00678e-05
4.00681e-05
4.00683e-05
4.00686e-05
4.00689e-05
4.00692e-05
4.00696e-05
4.007e-05
4.00705e-05
4.00711e-05
4.00719e-05
4.00728e-05
4.0074e-05
4.00755e-05
4.00771e-05
4.00801e-05
4.00812e-05
4.00884e-05
4.00601e-05
4.00602e-05
4.00595e-05
4.00582e-05
4.00574e-05
4.00568e-05
4.00561e-05
4.00554e-05
4.00549e-05
4.00545e-05
4.00542e-05
4.00541e-05
4.0054e-05
4.00539e-05
4.00539e-05
4.00539e-05
4.0054e-05
4.0054e-05
4.00541e-05
4.00543e-05
4.00544e-05
4.00546e-05
4.00549e-05
4.00552e-05
4.00555e-05
4.00559e-05
4.00563e-05
4.00567e-05
4.00571e-05