/*--------------------------------*- C++ -*----------------------------------*\
| =========                 |                                                 |
| \\      /  F ield         | OpenFOAM: The Open Source CFD Toolbox           |
|  \\    /   O peration     | Version:  2312                                  |
|   \\  /    A nd           | Website:  www.openfoam.com                      |
|    \\/     M anipulation  |                                                 |
\*---------------------------------------------------------------------------*/
FoamFile
{
    version     2.0;
    format      ascii;
    arch        "LSB;label=32;scalar=64";
    class       volScalarField;
    location    "350";
    object      p;
}
// * * * * * * * * * * * * * * * * * * * * * * * * * * * * * * * * * * * * * //

dimensions      [0 2 -2 0 0 0 0];

internalField   nonuniform List<scalar> 
10720
(
-62.2949
-133.583
-217.433
-300.071
-376.433
-454.221
-523.236
-581.179
-631.515
-670.9
-700.888
-722.972
-738.28
-747.539
-750.925
-747.79
-739.04
-723.626
-702.972
-677.143
-649.498
-623.093
-600.492
-573.531
-533.288
-482.206
-429.831
-384.234
-344.99
-308.073
-271.58
-235.418
-199.63
-163.847
-127.667
-90.0551
-51.5549
-6.92001
25.9979
9.07417
74.1172
143.457
208.194
263.515
305.433
330.177
338.464
336.065
323.162
302.133
278.59
255.045
232.262
210.881
190.768
171.979
154.082
136.808
119.664
102.599
85.3042
67.8707
50.711
35.6927
23.8566
14.1419
6.26043
0.397104
-3.48274
-5.62737
-6.18504
-5.23842
-2.79377
1.15751
6.96907
15.2149
29.138
52.8269
43.197
-10.9585
-71.6317
-136.072
-202.291
-270.068
-335.847
-397.551
-454.498
-504.929
-548.636
-585.624
-615.8
-639.161
-655.525
-664.59
-667.107
-662.961
-653.203
-638.381
-621.143
-603.851
-587.583
-565.175
-528.418
-479.366
-428.222
-383.165
-344.109
-307.269
-270.804
-234.679
-198.964
-163.276
-127.202
-89.6873
-51.266
-6.61565
25.6883
91.9282
138.38
184.715
229.409
268.796
300.263
320.674
329.369
327.943
317.254
300.072
279.875
258.612
237.226
216.422
196.448
177.434
159.199
141.545
124.144
106.894
89.5925
72.3195
55.5006
40.6083
28.5698
18.7022
10.5913
4.201
-0.368498
-3.13007
-4.17826
-3.61658
-1.47783
2.23666
7.87131
15.9845
29.8289
52.587
56.9766
8.31918
-46.468
-106.959
-169.677
-233.96
-298.242
-359.865
-417.245
-469.383
-515.028
-553.626
-584.87
-608.951
-626.105
-636.748
-640.908
-638.649
-630.618
-617.538
-601.272
-583.85
-566.431
-544.549
-511.369
-467.266
-420.369
-377.838
-340.19
-304.377
-268.76
-233.281
-197.985
-162.55
-126.644
-89.2619
-50.9458
-6.36604
25.8105
100.884
143.542
185.97
226.14
260.842
288.455
306.874
315.793
315.952
308.016
294.063
276.447
256.95
236.738
216.622
197.039
178.188
160.034
142.433
125.143
108.031
90.9556
73.9806
57.4881
42.6407
30.3419
20.2207
11.9221
5.43203
0.837996
-1.92344
-3.01017
-2.54011
-0.527533
3.05821
8.57937
16.6042
30.3143
52.1907
79.5867
38.7976
-7.79919
-59.0425
-112.842
-169.128
-226.237
-282.409
-336.318
-386.809
-432.761
-473.444
-508.393
-537.46
-560.518
-577.691
-588.529
-592.988
-591.382
-584.326
-573.106
-559.271
-543.655
-523.391
-493.55
-454.085
-411.21
-371.133
-334.902
-300.204
-265.576
-230.924
-196.303
-161.407
-125.891
-88.7816
-50.6468
-6.26669
26.0166
116.122
151.209
186.403
220.357
250.076
274.297
291.206
300.32
301.884
296.362
285.35
270.59
253.544
235.313
216.683
198.141
179.958
162.222
144.875
127.773
110.814
93.9257
77.178
60.9303
46.1418
33.6625
23.3249
14.8059
8.06151
3.15364
0.0261302
-1.42547
-1.27704
0.476635
3.87035
9.25568
17.1818
30.7187
51.7463
85.7133
49.3967
7.71405
-38.459
-87.0685
-138.526
-191.457
-244.251
-295.898
-345.239
-391.129
-432.758
-469.446
-500.696
-526.207
-545.669
-558.831
-565.7
-566.513
-561.892
-552.854
-540.688
-526.038
-506.862
-479.35
-443.152
-403.158
-364.867
-329.687
-295.867
-262.08
-228.185
-194.223
-159.895
-124.87
-88.1824
-50.3557
-6.30866
26.0806
118.324
149.474
180.804
211.026
237.498
259.348
275.181
284.417
287.083
283.601
275.123
262.961
248.261
231.981
214.873
197.446
180.035
162.818
145.829
129.011
112.307
95.6884
79.2391
63.2906
48.6351
36.0459
25.5147
16.7845
9.81671
4.67908
1.34503
-0.27108
-0.251165
1.39445
4.69375
9.99222
17.8263
31.1539
51.2933
89.5062
57.3535
20.2561
-20.8056
-64.0466
-110.167
-157.886
-205.923
-253.54
-299.676
-343.366
-383.84
-420.362
-452.333
-479.327
-500.968
-517.136
-527.635
-532.472
-532.01
-526.925
-518.11
-505.969
-489.026
-464.374
-431.59
-394.631
-358.374
-324.451
-291.582
-258.613
-225.424
-192.081
-158.306
-123.769
-87.5303
-50.0939
-6.52196
25.9663
118.38
145.857
173.693
200.744
224.568
244.521
259.471
268.741
272.237
270.375
264.001
254.128
241.65
227.367
211.954
195.89
179.527
163.094
146.694
130.339
114.023
97.7597
81.6508
66.0115
51.5169
38.87
28.1831
19.2764
12.1162
6.76678
3.2141
1.37473
1.17167
2.60156
5.70635
10.8364
18.5154
31.5741
50.8007
89.4264
60.4083
26.8394
-10.3506
-49.4372
-91.354
-134.965
-179.148
-223.41
-266.812
-308.515
-347.834
-384.018
-416.421
-444.523
-467.874
-486.065
-498.831
-506.022
-507.918
-505.062
-498.159
-487.527
-472.159
-449.876
-420.177
-386.122
-351.907
-319.275
-287.376
-255.235
-222.735
-189.965
-156.698
-122.651
-86.9005
-49.9246
-6.94398
25.6477
115.512
140.257
165.453
190.04
211.777
230.209
244.407
253.629
257.738
257.145
252.493
244.576
234.098
221.704
207.97
193.323
178.101
162.562
146.854
131.05
115.192
99.3366
83.6042
68.2967
53.9999
41.3526
30.5512
21.491
14.1494
8.58995
4.81305
2.75382
2.34714
3.59846
6.55426
11.5585
19.1119
31.8969
50.2336
87.747
61.4072
30.8729
-2.92488
-38.3505
-76.4625
-116.214
-156.63
-197.386
-237.684
-276.798
-314.155
-349.068
-380.898
-409.086
-433.124
-452.547
-467.118
-476.633
-481.158
-480.992
-476.566
-468.039
-454.681
-434.895
-408.217
-377.023
-344.914
-313.682
-282.851
-251.629
-219.904
-187.775
-155.049
-121.494
-86.2533
-49.8296
-7.55866
25.073
111.461
133.907
156.89
179.428
199.431
216.601
230.124
239.226
243.785
244.172
240.908
234.636
225.913
215.257
203.147
189.939
175.945
161.42
146.536
131.407
116.116
100.752
85.4567
70.5199
56.4664
43.8793
33.0122
23.8327
16.3361
10.5883
6.60575
4.3394
3.73226
4.79359
7.57609
12.4189
19.8021
32.2459
49.6646
84.8518
60.7332
32.7411
1.78041
-30.5698
-65.4322
-101.861
-138.975
-176.595
-214.024
-250.658
-286.034
-319.53
-350.549
-378.543
-402.974
-423.348
-439.298
-450.538
-456.964
-458.74
-456.161
-449.317
-437.689
-420.11
-396.159
-367.648
-337.613
-307.82
-278.099
-247.829
-216.918
-185.471
-153.33
-120.294
-85.5716
-49.7463
-8.27131
24.2232
106.597
127.15
148.295
169.115
187.653
203.755
216.661
225.599
230.471
231.612
229.462
224.555
217.347
208.25
197.654
185.85
173.104
159.652
145.67
131.297
116.646
101.836
87.0209
72.487
58.7131
46.2362
35.3468
26.0774
18.4462
12.5242
8.34213
5.86839
5.05785
5.92769
8.53749
13.2196
20.4285
32.513
49.0359
81.3043
59.0924
33.295
4.79677
-24.8846
-56.8969
-90.3603
-124.48
-159.179
-193.844
-227.981
-261.22
-293.01
-322.831
-350.157
-374.447
-395.195
-411.992
-424.534
-432.609
-436.22
-435.497
-430.428
-420.613
-405.205
-383.846
-357.92
-329.966
-301.67
-273.108
-243.83
-213.768
-183.037
-151.517
-119.037
-84.8596
-49.6463
-9.02406
23.1476
101.366
120.302
139.878
159.226
176.508
191.675
204.014
212.754
217.832
219.55
218.289
214.507
208.589
200.867
191.657
181.186
169.674
157.325
144.305
130.761
116.823
102.63
88.35
74.2613
60.8111
48.4994
37.639
28.3178
20.5811
14.507
10.1415
7.47124
6.46283
7.13984
9.56921
14.0744
21.0832
32.761
48.3768
77.3715
56.8055
32.9095
6.54691
-20.8142
-50.3347
-81.1879
-112.651
-144.704
-176.819
-208.591
-239.738
-269.776
-298.254
-324.694
-348.583
-369.415
-386.756
-400.244
-409.589
-414.653
-415.463
-411.951
-403.799
-390.387
-371.419
-347.933
-322.021
-295.252
-267.889
-239.638
-210.46
-180.48
-149.612
-117.723
-84.1257
-49.5251
-9.82613
21.9121
95.9784
113.526
131.745
149.816
166.002
180.341
192.148
200.671
205.872
208.027
207.472
204.616
199.787
193.263
185.299
176.069
165.745
154.495
142.465
129.796
116.627
103.105
89.4047
75.7984
62.7117
50.614
39.8299
30.4932
22.6778
16.4721
11.9366
9.07643
7.87257
8.35588
10.6014
14.9219
21.7162
32.9609
47.6823
73.2569
54.1336
31.9087
7.42445
-17.8998
-45.2185
-73.7492
-102.825
-132.477
-162.235
-191.771
-220.871
-249.123
-276.144
-301.506
-324.731
-345.337
-362.878
-376.964
-387.279
-393.558
-395.735
-393.683
-387.126
-375.603
-358.866
-337.69
-313.782
-288.568
-262.442
-235.254
-206.995
-177.801
-147.62
-116.355
-83.3785
-49.4011
-10.6934
20.5431
90.5929
106.928
123.958
140.901
156.124
169.714
181.02
189.317
194.573
197.054
197.062
194.963
191.05
185.56
178.702
170.608
161.405
151.227
140.192
128.427
116.068
103.263
90.1851
77.1007
64.4182
52.5832
41.9247
32.6127
24.75
18.4374
13.75
10.7118
9.31886
9.60888
11.6653
15.7885
22.3472
33.1253
46.9573
69.09
51.2396
30.4955
7.67512
-15.8476
-41.2111
-67.672
-94.6061
-122.085
-149.691
-177.145
-204.299
-230.798
-256.324
-280.506
-302.91
-323.084
-340.588
-355.006
-366.012
-373.249
-376.568
-375.803
-370.707
-360.925
-346.247
-327.239
-305.277
-281.628
-256.772
-230.678
-203.373
-175
-145.541
-114.934
-82.6175
-49.2957
-11.6265
19.0464
85.2989
100.569
116.541
132.48
146.845
159.753
170.585
178.647
183.91
186.63
187.083
185.602
182.458
177.855
171.969
164.9
156.74
147.587
137.532
126.681
115.157
103.101
90.6813
78.1551
65.915
54.3876
43.9014
34.6543
26.7761
20.3818
15.5611
12.3568
10.7808
10.8785
12.742
16.6583
22.9641
33.2497
46.2042
64.9569
48.2407
28.8204
7.48656
-14.4293
-38.0454
-62.6527
-87.6592
-113.171
-138.807
-164.332
-189.646
-214.451
-238.481
-261.423
-282.891
-302.461
-319.718
-334.234
-345.681
-353.655
-357.928
-358.302
-354.544
-346.368
-333.59
-316.614
-296.53
-274.445
-250.883
-225.911
-199.591
-172.074
-143.371
-113.458
-81.8393
-49.216
-12.6224
17.4365
80.1594
94.4788
109.507
124.541
138.133
150.414
160.796
168.62
173.853
176.745
177.547
176.571
174.068
170.222
165.186
159.033
151.829
143.642
134.535
124.589
113.91
102.626
90.8941
78.9581
67.1961
56.0187
45.7505
36.6092
28.7492
22.3007
17.368
14.0119
12.2614
12.1692
13.8362
17.5348
23.5693
33.3382
45.427
60.9135
45.2174
26.9882
6.99226
-13.4828
-35.5295
-58.4657
-81.7352
-105.46
-129.293
-153.037
-176.63
-199.819
-222.39
-244.074
-264.534
-283.384
-300.235
-314.669
-326.349
-334.857
-339.898
-341.251
-338.692
-331.979
-320.942
-305.855
-287.572
-267.037
-244.783
-220.956
-195.649
-169.021
-141.111
-111.926
-81.0426
-49.1575
-13.6786
15.7261
75.2114
88.676
102.851
117.066
129.954
141.654
151.61
159.194
164.368
167.376
168.453
167.887
165.92
162.719
158.42
153.081
146.745
139.456
131.252
122.188
112.351
101.85
90.8264
79.5068
68.2543
57.4657
47.4585
38.4635
30.6562
24.182
19.1597
15.6676
13.7519
13.4732
14.9411
18.4122
24.1586
33.3909
44.6295
56.9968
42.2257
25.0752
6.29105
-12.8843
-33.511
-54.9352
-76.6312
-98.7313
-120.916
-143.02
-165.01
-186.67
-207.829
-228.263
-247.677
-265.727
-282.052
-296.254
-307.987
-316.852
-322.495
-324.676
-323.177
-317.785
-308.336
-295.001
-278.433
-259.421
-238.483
-215.819
-191.55
-165.843
-138.758
-110.338
-80.2268
-49.1169
-14.7883
13.9213
70.4757
83.1669
96.5648
110.033
122.274
133.434
142.987
150.33
155.424
158.505
159.795
159.563
158.042
155.389
151.729
147.107
141.552
135.087
127.732
119.517
110.506
100.788
90.484
79.8016
69.087
58.7217
49.0153
40.2061
32.4863
26.0162
20.9283
17.3177
15.248
14.7875
16.0542
19.2888
24.7309
33.4103
43.8156
53.2317
39.3023
23.1345
5.45531
-12.5411
-31.8768
-51.9287
-72.1929
-92.8116
-113.49
-134.085
-154.583
-174.806
-194.614
-213.826
-232.185
-249.385
-265.098
-278.949
-290.592
-299.658
-305.75
-308.615
-308.038
-303.826
-295.814
-284.092
-269.146
-251.62
-231.995
-210.506
-187.297
-162.538
-136.314
-108.693
-79.3917
-49.092
-15.9437
12.0286
65.963
77.9508
90.6372
103.417
115.064
125.718
134.887
141.991
146.988
150.109
151.561
151.6
150.45
148.263
145.154
141.161
136.304
130.592
124.025
116.616
108.405
99.4601
89.8789
79.8472
69.6922
59.7807
50.4115
41.8256
34.2281
27.7923
22.664
18.954
16.7424
16.1062
17.1708
20.1608
25.284
33.3985
42.9895
49.6323
36.4732
21.2084
4.53794
-12.3803
-30.5402
-49.3382
-68.2973
-87.5615
-106.859
-126.062
-145.179
-164.056
-182.585
-200.615
-217.926
-234.252
-249.292
-262.701
-274.14
-283.268
-289.676
-293.09
-293.302
-290.131
-283.414
-273.17
-259.747
-243.658
-225.335
-205.027
-182.894
-159.11
-133.777
-106.991
-78.5358
-49.0819
-17.1356
10.059
61.6772
73.0203
85.0514
97.1966
108.29
118.471
127.274
134.141
139.03
142.163
143.738
143.996
143.156
141.364
138.729
135.287
131.05
126.019
120.179
113.526
106.081
97.8892
89.0256
79.6509
70.0719
60.6393
51.6396
43.3123
35.8709
29.5
24.3573
20.5681
18.2285
17.4241
18.2864
21.025
25.8164
33.3581
42.1559
46.2055
33.7562
19.3216
3.58135
-12.3507
-29.4308
-47.0809
-64.8434
-82.8682
-100.896
-118.819
-136.656
-154.277
-171.597
-188.495
-204.781
-220.223
-234.554
-247.455
-258.602
-267.678
-274.281
-278.122
-278.995
-276.733
-271.171
-262.272
-250.272
-235.564
-218.521
-199.393
-178.348
-155.562
-131.15
-105.232
-77.658
-49.0848
-18.3555
8.02453
57.6177
68.3664
79.7913
91.3482
101.924
111.659
120.114
126.749
131.52
134.645
136.31
136.745
136.163
134.706
132.479
129.518
125.83
121.41
116.234
110.285
103.566
96.0997
87.9399
79.2224
70.2306
61.2968
52.6941
44.6576
37.4047
31.1289
25.9984
22.1513
19.6985
18.7348
19.3961
21.8776
26.3263
33.2915
41.3193
42.955
31.1622
17.4952
2.61348
-12.4094
-28.497
-45.0903
-61.7551
-78.6401
-95.5011
-112.24
-128.893
-145.342
-161.524
-177.344
-192.638
-207.205
-220.807
-233.155
-243.943
-252.872
-259.567
-263.723
-265.139
-263.659
-259.119
-251.438
-240.756
-227.365
-211.573
-193.617
-173.667
-151.897
-128.433
-103.415
-76.7564
-49.0978
-19.5945
5.93815
53.7804
63.9793
74.8411
85.8501
95.9415
105.254
113.376
119.784
124.432
127.532
129.261
129.838
129.471
128.3
126.424
123.881
120.677
116.803
112.231
106.931
100.892
94.1186
86.6427
78.5754
70.1749
61.7539
53.5713
45.854
38.8202
32.6691
27.5773
23.6946
21.1447
20.0318
20.4946
22.7151
26.8124
33.2014
40.4841
39.88
28.6968
15.7432
1.65765
-12.5256
-27.6957
-43.315
-58.9679
-74.8025
-90.5871
-106.236
-121.789
-137.149
-152.265
-167.061
-181.403
-195.112
-207.98
-219.743
-230.122
-238.829
-245.527
-249.899
-251.749
-250.934
-247.29
-240.703
-231.237
-219.092
-204.513
-187.714
-168.861
-148.122
-125.629
-101.542
-75.8287
-49.1165
-20.8432
3.8142
50.1606
59.8477
70.1842
80.6804
90.3165
99.2307
107.034
113.22
117.741
120.803
122.576
123.266
123.078
122.148
120.575
118.396
115.618
112.231
108.203
103.497
98.0906
91.9733
85.1558
77.7248
69.9134
62.0141
54.2694
46.8961
40.1093
34.1111
29.0845
25.1886
22.5587
21.308
21.5762
23.5336
27.2733
33.0907
39.655
36.9785
26.3634
14.0738
0.729608
-12.6745
-26.9947
-41.7119
-56.4302
-71.2927
-86.0836
-100.723
-115.26
-129.605
-143.723
-157.556
-170.986
-183.863
-196.001
-207.166
-217.099
-225.527
-232.153
-236.654
-238.84
-238.58
-235.714
-230.104
-221.75
-210.775
-197.366
-181.703
-163.942
-144.242
-122.742
-99.611
-74.873
-49.1365
-22.0915
1.66758
46.7505
55.9599
65.8044
75.8193
85.0265
93.5634
101.063
107.031
111.424
114.438
116.237
117.017
116.979
116.254
114.941
113.078
110.676
107.721
104.181
100.016
95.1937
89.6908
83.5007
76.6869
69.4577
62.0834
54.7892
47.7801
41.2651
35.4462
30.5104
26.6241
23.9322
22.556
22.6352
24.3293
27.7077
32.9619
38.8364
34.2466
24.1619
12.4935
-0.158493
-12.8393
-26.368
-40.2484
-54.0998
-68.0636
-81.933
-95.6388
-109.231
-122.632
-135.817
-148.743
-161.308
-173.384
-184.807
-195.367
-204.831
-212.938
-219.428
-223.984
-226.42
-226.614
-224.417
-219.671
-212.329
-202.447
-190.155
-175.601
-158.922
-140.267
-119.775
-97.6247
-73.8866
-49.1523
-23.3303
-0.487597
43.5415
52.3051
61.6876
71.2487
80.0513
88.2301
95.4373
101.195
105.457
108.417
110.228
111.08
111.165
110.616
109.527
107.94
105.866
103.293
100.19
96.5153
92.2288
87.2978
81.7009
75.4809
68.821
61.9692
55.1333
48.5038
42.282
36.6666
31.8461
27.992
25.2565
23.7682
23.6655
25.098
28.1147
32.8177
38.0326
31.679
22.0914
11.0051
-0.998745
-13.0041
-25.7957
-38.897
-51.9433
-65.0719
-78.0884
-90.9275
-103.643
-116.165
-128.479
-140.553
-152.299
-163.608
-174.335
-184.295
-193.275
-201.032
-207.336
-211.882
-214.491
-215.05
-213.421
-209.435
-203.007
-194.139
-182.909
-169.429
-153.815
-136.205
-116.734
-95.5834
-72.8673
-49.1574
-24.5487
-2.63581
40.5261
48.8706
57.8187
66.9522
75.3718
83.2092
90.1365
95.6894
99.8218
102.722
104.535
105.441
105.63
105.231
104.335
102.988
101.201
98.9667
96.2538
93.0198
89.222
84.8198
79.7797
74.1259
68.0178
61.6812
55.3056
49.0672
43.1561
37.7656
33.0834
29.2833
26.5228
24.9367
24.661
25.836
28.493
32.6604
37.2473
29.2694
20.1495
9.61018
-1.78574
-13.1587
-25.2616
-37.6355
-49.9317
-62.2843
-74.5075
-86.5416
-98.4416
-110.147
-121.648
-132.921
-143.895
-154.473
-164.53
-173.899
-182.389
-189.777
-195.855
-200.339
-203.055
-203.899
-202.746
-199.423
-193.815
-185.882
-175.653
-163.207
-148.64
-132.068
-113.623
-93.4891
-71.8118
-49.1457
-25.7365
-4.76213
37.6954
45.6459
54.1838
62.9123
70.9687
78.4812
85.1405
90.4953
94.4994
97.3351
99.1408
100.089
100.365
100.093
99.3645
98.2256
96.6914
94.7553
92.3888
89.5508
86.1965
82.28
77.7586
72.641
67.0634
61.2303
55.3127
49.4716
43.8849
38.7379
34.2147
30.4896
27.7229
26.0539
25.6153
26.5391
28.8418
32.4921
36.4841
27.012
18.3327
8.30831
-2.51607
-13.296
-24.7538
-36.4474
-48.0436
-59.6726
-71.157
-82.4426
-93.5839
-104.527
-115.27
-125.794
-136.039
-145.924
-155.337
-164.131
-172.134
-179.142
-184.963
-189.344
-192.109
-193.169
-192.409
-189.659
-184.781
-177.703
-168.415
-156.961
-143.41
-127.866
-110.45
-91.3424
-70.7185
-49.1093
-26.8829
-6.85131
35.0409
42.6196
50.7697
59.1139
66.8256
74.0286
80.4302
85.5938
89.4714
92.2402
94.032
95.012
95.3595
95.1964
94.6129
93.6556
92.3424
90.6691
88.6103
86.1266
83.173
79.7001
75.659
71.0448
65.9739
60.6285
55.1622
49.7203
44.4674
39.5791
35.2336
31.6031
28.8487
27.1121
26.5223
27.2033
29.1599
32.3148
35.746
24.9004
16.6365
7.09859
-3.18753
-13.4099
-24.2621
-35.3185
-46.2599
-57.2131
-68.0082
-78.5966
-89.0314
-99.2653
-109.3
-119.123
-128.684
-137.912
-146.711
-154.948
-162.471
-169.093
-174.638
-178.879
-181.647
-182.862
-182.423
-180.164
-175.933
-169.632
-161.22
-150.71
-138.147
-123.613
-107.222
-89.1475
-69.5839
-49.0413
-27.9792
-8.88809
32.5537
39.7812
47.5638
55.5439
62.9272
69.8353
75.9895
80.9676
84.7212
87.4215
89.1942
90.1969
90.6038
90.5342
90.0764
89.2778
88.1584
86.7167
84.9303
82.7626
80.1693
77.1
73.501
69.3574
64.766
59.889
54.863
49.8182
44.9046
40.2866
36.1345
32.6167
29.8924
28.1039
27.3758
27.8248
29.4464
32.1298
35.0354
22.9278
15.0571
5.97823
-3.79899
-13.4971
-23.7794
-34.2374
-44.5662
-54.8867
-65.0384
-74.9761
-84.7529
-94.3246
-103.698
-112.866
-121.783
-130.391
-138.606
-146.308
-153.362
-159.599
-164.853
-168.93
-171.662
-172.979
-172.796
-170.954
-167.293
-161.696
-154.096
-144.479
-132.867
-119.323
-103.946
-86.9054
-68.4062
-48.9354
-29.0144
-10.8587
30.2254
37.1204
44.5548
52.1882
59.2589
65.8857
71.8022
76.601
80.2331
82.8642
84.6139
85.6323
86.0889
86.0993
85.7505
85.0904
84.1408
82.903
81.3577
79.471
77.2008
74.4971
71.3034
67.596
63.4555
59.0252
54.4254
49.7712
45.1984
40.859
36.9137
33.5242
30.8468
29.0224
28.17
28.3996
29.7002
31.9382
34.3541
21.0874
13.5891
4.94504
-4.35102
-13.5547
-23.3007
-33.1955
-42.9491
-52.6772
-62.2272
-71.5565
-80.7189
-89.6737
-98.4296
-106.984
-115.298
-123.323
-130.983
-138.174
-144.773
-150.628
-155.587
-159.477
-162.142
-163.519
-163.536
-162.045
-158.882
-153.918
-147.067
-138.291
-127.59
-115.008
-100.633
-84.6201
-67.1831
-48.7821
-29.98
-12.7497
28.0479
34.6274
41.7311
49.0342
55.807
62.1647
67.8535
72.4789
75.9926
78.5543
80.2777
81.3061
81.8039
81.8835
81.629
81.09
80.2895
79.2311
77.8988
76.2619
74.2809
71.9068
69.0822
65.7774
62.0583
58.0507
53.86
49.5869
45.3528
41.2964
37.5677
34.3208
31.7058
29.861
28.8994
28.9242
29.9203
31.7408
33.7031
19.3729
12.2275
3.99595
-4.84473
-13.5812
-22.8208
-32.1856
-41.3983
-50.5705
-59.5567
-68.3175
-76.9056
-85.2841
-93.4635
-101.444
-109.193
-116.669
-123.805
-130.509
-136.67
-142.152
-146.812
-150.504
-153.076
-154.476
-154.647
-153.448
-150.718
-146.321
-140.156
-132.167
-122.334
-110.684
-97.2898
-82.2956
-65.9126
-48.5764
-30.8662
-14.5487
26.0131
32.2928
39.0822
46.0708
52.5589
58.6594
64.1295
68.5875
71.9859
74.4784
76.1733
77.2072
77.7386
77.8778
77.7059
77.2729
76.6034
75.7026
74.5582
73.1429
71.4197
69.3418
66.8523
63.9173
60.5895
56.9794
53.1783
49.2735
45.3724
41.6003
38.0955
35.0023
32.4639
30.6138
29.5588
29.3949
30.1052
31.5376
33.0828
17.7777
10.9674
3.12731
-5.28141
-13.5762
-22.3375
-31.2024
-39.9062
-48.5561
-57.0139
-65.2423
-73.2932
-81.1332
-88.7736
-96.2176
-103.438
-110.398
-117.04
-123.281
-129.022
-134.141
-138.506
-141.99
-144.452
-145.846
-146.127
-145.17
-142.816
-138.923
-133.385
-126.128
-117.119
-106.366
-93.9283
-79.9354
-64.5941
-48.3112
-31.6658
-16.2449
24.1134
30.1082
36.598
43.2867
49.5028
55.357
60.6168
64.914
68.2003
70.6244
72.2888
73.3241
73.8835
74.0738
73.9739
73.6338
73.0794
72.3175
71.3389
70.1196
68.626
66.8135
64.627
62.0295
59.0635
55.8247
52.3919
48.8401
45.2634
41.7735
38.4965
35.5661
33.1169
31.276
30.1435
29.8087
30.254
31.3285
32.4928
16.2955
9.80377
2.33566
-5.66316
-13.5399
-21.8487
-30.2417
-38.4663
-46.6252
-54.5865
-62.3161
-69.8642
-77.2004
-84.3368
-91.2796
-98.0049
-104.481
-110.658
-116.461
-121.802
-126.57
-130.646
-133.917
-136.253
-137.619
-137.978
-137.218
-135.185
-131.741
-126.772
-120.195
-111.963
-102.068
-90.5575
-77.5446
-63.2271
-47.9808
-32.3712
-17.8285
22.3412
28.0651
34.2692
40.6712
46.6276
52.2458
57.3037
61.4457
64.6232
66.9798
68.6128
69.6467
70.2289
70.463
70.4259
70.1675
69.7139
69.0745
68.2421
67.1961
65.9063
64.331
62.4175
60.1273
57.4935
54.5994
51.5124
48.2963
45.0326
41.82
38.7721
36.011
33.6616
31.8433
30.6498
30.1624
30.365
31.1129
31.932
14.92
8.73139
1.61725
-5.99218
-13.4725
-21.3529
-29.2998
-37.0721
-44.7688
-52.2635
-59.5256
-66.6028
-73.4677
-80.1336
-86.6072
-92.8692
-98.892
-104.631
-110.021
-114.981
-119.414
-123.207
-126.264
-128.467
-129.786
-130.195
-129.593
-127.837
-124.79
-120.336
-114.386
-106.882
-97.8054
-87.1879
-75.1285
-61.8108
-47.5808
-32.9762
-19.2906
20.6895
26.1552
32.0868
38.2149
43.9226
49.3149
54.179
58.171
61.2433
63.5337
65.1344
66.1639
66.7646
67.0368
67.0545
66.8676
66.5029
65.9709
65.2674
64.3746
63.2655
61.9017
60.2332
58.2213
55.8915
53.3155
50.5512
47.652
44.6878
41.745
38.9245
36.3367
34.0959
32.3126
31.0741
30.4534
30.4371
30.8896
31.3986
13.6452
7.74537
0.96824
-6.27092
-13.3751
-20.8498
-28.3744
-35.72
-42.9806
-50.0367
-56.8596
-63.4955
-69.9191
-76.1447
-82.1802
-88.0089
-93.6071
-98.9358
-103.936
-108.536
-112.647
-116.169
-119.014
-121.078
-122.337
-122.774
-122.298
-120.777
-118.079
-114.09
-108.716
-101.893
-93.5912
-83.83
-72.6927
-60.3472
-47.1066
-33.4753
-20.6244
19.1515
24.371
30.0424
35.9085
41.3783
46.5539
51.2314
55.0792
58.0496
60.2749
61.8428
62.8659
63.4813
63.7862
63.852
63.7279
63.4412
63.004
62.4139
61.6562
60.7069
59.5311
58.0819
56.3212
54.2683
51.9847
49.5194
46.9172
44.2373
41.5544
38.9572
36.5444
34.419
32.6821
31.414
30.6797
30.4686
30.6572
30.8904
12.4656
6.84079
0.384807
-6.50207
-13.2492
-20.339
-27.4641
-34.4063
-41.256
-47.8991
-54.3093
-60.5314
-66.542
-72.3556
-77.9811
-83.4045
-88.6053
-93.5491
-98.1831
-102.444
-106.249
-109.51
-112.148
-114.072
-115.26
-115.706
-115.33
-114.009
-111.618
-108.046
-103.201
-97.0111
-89.4392
-80.4939
-70.2431
-58.8372
-46.5566
-33.8651
-21.8241
17.7205
22.7051
28.1278
33.7433
38.9851
43.9529
48.4512
52.16
55.0316
57.1931
58.7282
59.7429
60.3701
60.7032
60.811
60.7419
60.5239
60.1699
59.6795
59.0409
58.2327
57.2238
55.9703
54.4355
52.6337
50.6171
48.4275
46.1017
43.6896
41.255
38.875
36.6365
34.6315
32.9507
31.6677
30.8395
30.4584
30.4141
30.4043
11.3753
6.01297
-0.136913
-6.68831
-13.0961
-19.8206
-26.5669
-33.1279
-39.59
-45.844
-51.8665
-57.7001
-63.3235
-68.7518
-73.9942
-79.0388
-83.8678
-88.4513
-92.7418
-96.6821
-100.199
-103.211
-105.648
-107.431
-108.544
-108.985
-108.686
-107.534
-105.413
-102.216
-97.8526
-92.2489
-85.3616
-77.1895
-67.7864
-57.2834
-45.9293
-34.1423
-22.8859
16.3904
21.1506
26.3354
31.7111
36.7345
41.5028
45.8287
49.4033
52.1795
54.2789
55.781
56.786
57.422
57.7789
57.9234
57.9028
57.7452
57.4643
57.0616
56.5276
55.8439
54.9825
53.9034
52.5714
50.996
49.2224
47.2854
45.2153
43.0536
40.8543
38.6834
36.6166
34.7349
33.1188
31.8344
30.9316
30.4051
30.1582
29.9371
10.3691
5.2573
-0.600674
-6.83255
-12.9176
-19.2954
-25.6828
-31.8832
-37.9789
-43.8664
-49.5239
-54.993
-60.2535
-65.3209
-70.2051
-74.8958
-79.3776
-83.624
-87.5928
-91.2326
-94.4771
-97.2523
-99.4967
-101.142
-102.175
-102.601
-102.361
-101.352
-99.467
-96.6063
-92.6811
-87.6179
-81.3695
-73.9264
-65.3288
-55.689
-45.224
-34.3059
-23.8072
15.1552
19.701
24.6583
29.8041
34.6182
39.1948
43.3549
46.8002
49.4839
51.5226
52.9918
53.986
54.6284
55.0058
55.1821
55.2039
55.0993
54.8826
54.5568
54.1148
53.5407
52.8097
51.8853
50.7343
49.3627
47.809
46.1025
44.2675
42.3383
40.3599
38.3886
36.4892
34.732
33.1875
31.9144
30.9554
30.3075
29.8874
29.4851
9.44195
4.56936
-1.01013
-6.93735
-12.7156
-18.7638
-24.811
-30.6699
-36.4193
-41.9615
-47.2758
-52.4025
-57.3229
-62.0525
-66.6018
-70.9616
-75.1192
-79.0508
-82.7186
-86.0764
-89.0651
-91.6172
-93.6778
-95.1888
-96.141
-96.5443
-96.3479
-95.4601
-93.7824
-91.222
-87.6944
-83.128
-77.4731
-70.7133
-62.8772
-54.0583
-44.4423
-34.3554
-24.5869
14.009
18.35
23.0892
28.0149
32.6282
37.0209
41.0213
44.3421
46.9362
48.9158
50.3518
51.3341
51.9809
52.3755
52.5795
52.6385
52.5802
52.4198
52.1615
51.8
51.3223
50.706
49.9186
48.9289
47.7401
46.3847
44.8871
43.267
41.5523
39.7801
37.9976
36.2598
34.6267
33.1592
31.9084
30.9108
30.1648
29.5994
29.0444
8.58891
3.94465
-1.36881
-7.00557
-12.492
-18.2268
-23.9512
-29.4868
-34.9093
-40.1255
-45.1169
-49.9217
-54.5232
-58.937
-63.1729
-67.2238
-71.0787
-74.7165
-78.1034
-81.1976
-83.9461
-86.2883
-88.1749
-89.557
-90.4288
-90.8042
-90.6401
-89.8549
-88.3586
-86.0662
-82.8986
-78.7872
-73.681
-67.5588
-60.4385
-52.3955
-43.5865
-34.2925
-25.2256
12.9465
17.0915
21.622
26.3365
30.7573
34.9731
38.8199
42.0203
44.5279
46.4497
47.8529
48.8224
49.4715
49.8805
50.1084
50.1997
50.1822
50.0709
49.8716
49.5807
49.1873
48.672
48.0057
47.1591
46.1334
44.956
43.6471
42.2225
40.7043
39.1232
37.518
35.9346
34.4238
33.0371
31.8185
30.7984
29.9762
29.2922
28.6112
7.80525
3.37923
-1.68031
-7.04001
-12.2485
-17.6855
-23.1034
-28.3328
-33.4461
-38.3549
-43.042
-47.5446
-51.8472
-55.965
-59.9082
-63.6708
-67.2434
-70.6072
-73.732
-76.5804
-79.1044
-81.2499
-82.9728
-84.2321
-85.0254
-85.3695
-85.2288
-84.5303
-83.1933
-81.1402
-78.2979
-74.6014
-70.0007
-64.4704
-58.0192
-50.7061
-42.6601
-34.1196
-25.7252
11.9625
15.92
20.2506
24.7627
28.9984
33.0444
36.7432
39.8274
42.2512
44.1165
45.487
46.4428
47.0925
47.5133
47.7617
47.8812
47.8991
47.8308
47.6829
47.4537
47.134
46.7074
46.1475
45.4277
44.5472
43.5289
42.3897
41.1417
39.8028
38.3974
36.9573
35.5205
34.1288
32.8254
31.6473
30.6194
29.7415
28.9637
28.1814
7.08651
2.86904
-1.94791
-7.04333
-11.9873
-17.1411
-22.2679
-27.2074
-32.0281
-36.6468
-41.0477
-45.2663
-49.2884
-53.1291
-56.7988
-60.2921
-63.6016
-66.7102
-69.5911
-72.2104
-74.5252
-76.487
-78.0566
-79.1998
-79.9176
-80.229
-80.1046
-79.4798
-78.2828
-76.443
-73.8941
-70.5753
-66.4381
-61.4546
-55.6258
-48.9956
-41.6677
-33.8406
-26.0886
11.0522
14.8301
18.9693
23.2869
27.3452
31.2276
34.7837
37.7559
40.0984
41.9086
43.2466
44.188
44.8367
45.2669
45.5329
45.6766
45.7252
45.6943
45.5913
45.4156
45.1603
44.8111
44.3447
43.7368
42.9851
42.1085
41.121
40.0321
38.8555
37.6109
36.3237
35.0247
33.748
32.529
31.3983
30.3756
29.4607
28.6119
27.7512
6.42835
2.41035
-2.17486
-7.01811
-11.7101
-16.5945
-21.4449
-26.1097
-30.6539
-34.9988
-39.13
-43.0817
-46.8408
-50.4221
-53.8362
-57.0786
-60.1427
-63.0138
-65.6678
-68.0742
-70.1945
-71.9852
-73.412
-74.4465
-75.0925
-75.3708
-75.2576
-74.6957
-73.6217
-71.9723
-69.6875
-66.7115
-62.998
-58.5174
-53.2646
-47.2703
-40.6148
-33.4604
-26.3206
10.2107
13.8168
17.7722
21.9035
25.7911
29.5163
32.935
35.7988
38.0624
39.8188
41.1245
42.0508
42.697
43.1345
43.4151
43.5797
43.6548
43.6563
43.5922
43.463
43.2637
42.9819
42.5974
42.0879
41.45
40.6991
39.8469
38.9003
37.8702
36.7718
35.6251
34.4548
33.2881
32.1535
31.0755
30.0694
29.1342
28.2352
27.317
5.82682
1.99942
-2.3642
-6.96693
-11.4187
-16.047
-20.6352
-25.0394
-29.322
-33.4084
-37.2856
-40.9865
-44.499
-47.8377
-51.0129
-54.0212
-56.8571
-59.5075
-61.9507
-64.1595
-66.0992
-67.7313
-69.0255
-69.9588
-70.5371
-70.7828
-70.6771
-70.1695
-69.2038
-67.7243
-65.6772
-63.0115
-59.6836
-55.6638
-50.9415
-45.536
-39.5075
-32.9852
-26.4266
9.43358
12.8752
16.6544
20.6068
24.3305
27.9044
31.1905
33.9494
36.1365
37.8402
39.1139
40.0242
40.6668
41.1095
41.4022
41.5845
41.6825
41.7118
41.6812
41.5925
41.4415
41.2183
40.9052
40.482
39.9443
39.3046
38.5723
37.7527
36.854
35.8877
34.8695
33.8185
32.7562
31.7049
30.6836
29.7036
28.763
27.8325
26.8756
5.27798
1.63292
-2.519
-6.8921
-11.1153
-15.4998
-19.8387
-23.9961
-28.0313
-31.8738
-35.5119
-38.9769
-42.2583
-45.3698
-48.322
-51.1121
-53.7356
-56.1809
-58.4287
-60.4543
-62.227
-63.7124
-64.884
-65.7237
-66.239
-66.4535
-66.3524
-65.8918
-65.0221
-63.6943
-61.8606
-59.4751
-56.4972
-52.8976
-48.6618
-43.7994
-38.3527
-32.4218
-26.4131
8.7167
12.0006
15.611
19.3914
22.9576
26.3857
29.5439
32.2016
34.3143
35.9664
37.2081
38.102
38.7395
39.1857
39.4881
39.6854
39.8028
39.856
39.8542
39.8001
39.691
39.5185
39.2676
38.9197
38.4699
37.9281
37.3017
36.5949
35.8135
34.9661
34.0646
33.1237
32.1597
31.1896
30.2277
29.2817
28.3485
27.4029
26.4241
4.77818
1.30753
-2.64208
-6.79598
-10.8014
-14.9538
-19.0561
-22.9796
-26.7807
-30.393
-33.8058
-37.0493
-40.1138
-43.013
-45.7572
-48.344
-50.7701
-53.025
-55.0915
-56.9479
-58.5664
-59.9164
-60.9751
-61.7284
-62.1856
-62.3707
-62.2726
-61.853
-61.0684
-59.876
-58.2339
-56.1009
-53.4399
-50.2221
-46.4305
-42.0665
-37.1575
-31.7778
-26.2874
8.05602
11.1889
14.6372
18.2526
21.6673
24.9551
27.9898
30.5494
32.5898
34.1914
35.4012