/*--------------------------------*- C++ -*----------------------------------*\
| =========                 |                                                 |
| \\      /  F ield         | OpenFOAM: The Open Source CFD Toolbox           |
|  \\    /   O peration     | Version:  2312                                  |
|   \\  /    A nd           | Website:  www.openfoam.com                      |
|    \\/     M anipulation  |                                                 |
\*---------------------------------------------------------------------------*/
FoamFile
{
    version     2.0;
    format      ascii;
    arch        "LSB;label=32;scalar=64";
    class       surfaceScalarField;
    location    "350";
    object      phi;
}
// * * * * * * * * * * * * * * * * * * * * * * * * * * * * * * * * * * * * * //

dimensions      [0 3 -1 0 0 0 0];

oriented        oriented;

internalField   nonuniform List<scalar> 
21254
(
-0.233807
0.253404
-0.0195976
0.275402
-0.0219979
0.294339
-0.018937
0.311252
-0.0169131
0.327227
-0.0159748
0.339955
-0.0127278
0.349938
-0.0099833
0.357928
-0.00798942
0.362956
-0.00502798
0.366018
-0.00306277
0.367166
-0.00114776
0.365848
0.0013184
0.362195
0.00365254
0.356028
0.00616689
0.346947
0.00908096
0.334841
0.0121065
0.318929
0.015912
0.298525
0.020404
0.272464
0.026061
0.239995
0.0324688
0.200629
0.0393666
0.157706
0.0429223
0.119253
0.0384532
0.0950996
0.0241536
0.0901287
0.00497072
0.0996473
-0.00951843
0.113606
-0.0139584
0.126076
-0.0124701
0.135122
-0.0090463
0.140741
-0.00561852
0.143494
-0.00275326
0.14353
-3.59619e-05
0.140713
0.00281715
0.13515
0.00556212
0.12657
0.00858047
0.11395
0.0126208
0.0954222
0.0185278
0.0671463
0.0282768
0.0662078
0.00095031
-0.210723
-0.0230842
-0.186784
-0.0239385
-0.157395
-0.0293889
-0.125189
-0.0322064
-0.0912771
-0.0339116
-0.0563347
-0.0349424
-0.0219547
-0.0343799
0.00991511
-0.0318698
0.0388761
-0.028961
0.0644546
-0.0255785
0.0864083
-0.0219536
0.105101
-0.0186927
0.120823
-0.0157221
0.133918
-0.013095
0.145104
-0.0111859
0.154703
-0.00959899
0.163192
-0.00848876
0.170801
-0.00760961
0.177841
-0.00703922
0.184429
-0.00658818
0.190734
-0.00630559
0.196741
-0.00600716
0.202375
-0.00563335
0.206982
-0.00460743
0.210384
-0.00340204
0.212906
-0.00252169
0.214603
-0.00169717
0.215704
-0.0011014
0.21635
-0.000645593
0.216532
-0.000182134
0.216036
0.000496162
0.214776
0.00126038
0.21275
0.00202558
0.209998
0.00275185
0.206436
0.00356208
0.20173
0.00470591
0.194917
0.00681334
0.181097
0.0138195
0.161218
0.0198795
-0.213184
0.234692
-0.0411052
0.256716
-0.0440221
0.27974
-0.0419612
0.301253
-0.0384251
0.322294
-0.0370165
0.341878
-0.0323114
0.359604
-0.0277091
0.375756
-0.0241415
0.389965
-0.0192371
0.40231
-0.0154081
0.413028
-0.011866
0.422568
-0.00822087
0.431268
-0.0050478
0.43918
-0.00174494
0.446094
0.00216637
0.451573
0.00662763
0.455282
0.0122032
0.456859
0.018827
0.454952
0.0279679
0.448382
0.0390388
0.434679
0.0530697
0.41224
0.0653608
0.380901
0.0697922
0.34565
0.059405
0.312983
0.0376381
0.284808
0.0186565
0.260898
0.00995138
0.24137
0.0070583
0.226454
0.00586971
0.215516
0.00531906
0.206701
0.00606224
0.198421
0.00824424
0.189732
0.0115062
0.17988
0.0154135
0.168119
0.0203414
0.152926
0.0278143
0.133131
0.0383235
0.09939
0.0620182
0.0714082
0.0289395
-0.191224
-0.0450442
-0.167725
-0.0474383
-0.140211
-0.0569025
-0.111106
-0.0613118
-0.0801903
-0.064827
-0.0478615
-0.0672713
-0.0156195
-0.0666219
0.0152036
-0.0626929
0.0433579
-0.0571153
0.0684079
-0.0506285
0.0901859
-0.0437317
0.10907
-0.0375766
0.125515
-0.0321673
0.139744
-0.0273239
0.152207
-0.0236485
0.163205
-0.0205977
0.173033
-0.018317
0.181999
-0.0165749
0.190358
-0.0153983
0.198222
-0.014452
0.205754
-0.0138377
0.213025
-0.0132782
0.219967
-0.0125753
0.226122
-0.0107622
0.231217
-0.0084969
0.235441
-0.00674583
0.238698
-0.00495411
0.240896
-0.00329947
0.241986
-0.00173627
0.242076
-0.000272171
0.241391
0.00118194
0.240114
0.00253703
0.238265
0.0038746
0.235841
0.00517583
0.232764
0.00663848
0.22874
0.0087307
0.223785
0.0117684
0.21344
0.0241642
0.19539
0.0379288
-0.206947
0.228644
-0.0628026
0.250492
-0.0658698
0.27408
-0.0655496
0.295642
-0.0599874
0.316136
-0.0575103
0.335732
-0.0519074
0.353132
-0.0451084
0.368726
-0.0397358
0.382066
-0.0325776
0.393417
-0.0267591
0.40274
-0.0211891
0.410167
-0.0156476
0.415549
-0.01043
0.419367
-0.00556271
0.421622
-8.8106e-05
0.423342
0.00490712
0.424627
0.0109182
0.42641
0.0170439
0.429125
0.0252532
0.433455
0.0347089
0.439377
0.0471477
0.444877
0.0598602
0.446112
0.0685573
0.440178
0.065339
0.428119
0.0496975
0.412443
0.0343318
0.394197
0.028198
0.372838
0.028417
0.348212
0.0304962
0.321618
0.0319125
0.2955
0.0321808
0.271917
0.031827
0.25124
0.0321828
0.232242
0.0344119
0.213211
0.0393722
0.192018
0.0490081
0.167121
0.0632204
0.129573
0.0995662
0.0870703
0.0714461
-0.185108
-0.0668825
-0.161178
-0.0713682
-0.132556
-0.0855253
-0.102791
-0.0910761
-0.071688
-0.0959304
-0.0393969
-0.0995624
-0.00749991
-0.0985189
0.0222817
-0.0924745
0.0495724
-0.0844061
0.074278
-0.0753341
0.0960732
-0.0655268
0.115134
-0.056637
0.131842
-0.0488762
0.146477
-0.0419585
0.159345
-0.0365161
0.170784
-0.0320367
0.181059
-0.0285925
0.190438
-0.0259539
0.199128
-0.0240883
0.207294
-0.0226177
0.215121
-0.0216653
0.222624
-0.0207812
0.229705
-0.0196564
0.236064
-0.0171208
0.241411
-0.0138438
0.245859
-0.0111935
0.249475
-0.00857074
0.2523
-0.0061239
0.254396
-0.00383274
0.255757
-0.00163273
0.256438
0.000500098
0.256404
0.0025711
0.25566
0.0046189
0.254133
0.00670297
0.251738
0.00903293
0.248124
0.0123446
0.242972
0.0169212
0.232686
0.0344495
0.214883
0.055732
-0.199344
0.222027
-0.0854857
0.244792
-0.0886351
0.269826
-0.0905834
0.292681
-0.0828422
0.314842
-0.0796713
0.336095
-0.0731603
0.355619
-0.0646326
0.373239
-0.0573555
0.389167
-0.0485054
0.403183
-0.0407749
0.415398
-0.0334046
0.425827
-0.0260766
0.434534
-0.0191373
0.441594
-0.0126223
0.447307
-0.00580094
0.451127
0.00108687
0.45316
0.00888469
0.453182
0.0170227
0.451741
0.0266935
0.449326
0.0371238
0.447195
0.0492791
0.446616
0.0604395
0.447066
0.0681069
0.446281
0.0661243
0.442357
0.0536217
0.435864
0.0408243
0.428166
0.0358965
0.419573
0.0370101
0.409025
0.0410444
0.394797
0.0461399
0.375425
0.0515536
0.350752
0.0565
0.322717
0.0602173
0.294021
0.0631076
0.265955
0.0674384
0.237189
0.0777742
0.205641
0.0947685
0.162891
0.142318
0.112298
0.122043
-0.176949
-0.0892777
-0.152944
-0.0953733
-0.123823
-0.114646
-0.0939275
-0.120971
-0.0627608
-0.127097
-0.0303674
-0.131956
0.0014426
-0.130329
0.0308497
-0.121882
0.0576696
-0.111226
0.0820019
-0.0996663
0.103495
-0.0870198
0.122391
-0.0755335
0.139122
-0.0656072
0.153941
-0.0567775
0.167168
-0.0497431
0.179028
-0.043896
0.189813
-0.0393782
0.199703
-0.0358439
0.208928
-0.0333129
0.217626
-0.0313151
0.225906
-0.0299459
0.233836
-0.0287108
0.241354
-0.0271743
0.248138
-0.0239051
0.25394
-0.0196455
0.25882
-0.0160743
0.262832
-0.0125827
0.266028
-0.00931917
0.268438
-0.00624293
0.270132
-0.00332724
0.271143
-0.000510768
0.271493
0.00222165
0.271175
0.00493688
0.270172
0.00770516
0.268363
0.010842
0.265376
0.0153314
0.26065
0.0216475
0.250921
0.0441787
0.232552
0.0741011
-0.195506
0.21901
-0.10899
0.242645
-0.11227
0.269071
-0.117009
0.292665
-0.106436
0.315804
-0.10281
0.338095
-0.0954514
0.358432
-0.0849697
0.37692
-0.075843
0.393847
-0.0654325
0.408559
-0.055487
0.421435
-0.0462815
0.432408
-0.0370495
0.441754
-0.0284833
0.449154
-0.0200215
0.45475
-0.0113978
0.458611
-0.00277329
0.461009
0.00648642
0.46207
0.0159611
0.461663
0.0271006
0.460215
0.0385721
0.457834
0.0516602
0.454939
0.0633347
0.451605
0.0714409
0.447151
0.0705785
0.440923
0.0598492
0.433368
0.0483792
0.425662
0.0436028
0.418537
0.0441352
0.412036
0.0475449
0.405829
0.0523473
0.398808
0.0585745
0.388882
0.0664261
0.373372
0.0757275
0.350577
0.0859017
0.321284
0.0967324
0.287353
0.111705
0.249237
0.132885
0.200596
0.190958
0.144199
0.178443
-0.17206
-0.112724
-0.147327
-0.120106
-0.116942
-0.145031
-0.086194
-0.151719
-0.0542947
-0.158997
-0.021251
-0.164999
0.0109605
-0.16254
0.0404068
-0.151328
0.0670938
-0.137913
0.0912124
-0.123785
0.112462
-0.10827
0.131188
-0.0942594
0.147891
-0.0823099
0.16279
-0.0716766
0.176203
-0.0631557
0.188391
-0.0560848
0.199533
-0.0505199
0.209812
-0.0461229
0.219423
-0.0429235
0.228503
-0.0403953
0.237144
-0.0385871
0.245386
-0.0369532
0.253193
-0.0349814
0.260289
-0.0310006
0.266409
-0.0257659
0.271587
-0.0212516
0.275861
-0.0168569
0.279284
-0.0127429
0.281879
-0.00883755
0.28368
-0.00512774
0.28473
-0.00156095
0.285096
0.00185529
0.284786
0.00524675
0.283784
0.00870712
0.282067
0.0125589
0.2793
0.0180981
0.274956
0.025992
0.266411
0.0527238
0.248615
0.0918966
-0.192331
0.216851
-0.13351
0.24181
-0.137229
0.269614
-0.144813
0.294416
-0.131238
0.318578
-0.126971
0.34224
-0.119114
0.363555
-0.106285
0.383338
-0.0956252
0.401279
-0.0833738
0.417264
-0.0714718
0.431521
-0.0605383
0.443865
-0.0493942
0.454528
-0.0391463
0.463504
-0.0289974
0.470664
-0.0185579
0.47637
-0.00847932
0.480225
0.00263198
0.482349
0.013837
0.482936
0.026514
0.481964
0.0395441
0.47967
0.0539541
0.476307
0.0666976
0.471605
0.0761421
0.465106
0.0770781
0.456627
0.0683282
0.446792
0.0582135
0.436628
0.0537669
0.42677
0.0539939
0.417411
0.056904
0.408716
0.0610417
0.400936
0.0663544
0.394005
0.0733581
0.387026
0.0827063
0.377335
0.095592
0.360646
0.113422
0.333401
0.138949
0.295003
0.171284
0.242411
0.243551
0.181224
0.239632
-0.167921
-0.137134
-0.142375
-0.145652
-0.110684
-0.176723
-0.078796
-0.183607
-0.0458956
-0.191897
-0.0119244
-0.198971
0.0210066
-0.195471
0.0508173
-0.181139
0.0776138
-0.164709
0.101685
-0.147856
0.122787
-0.129372
0.141328
-0.1128
0.157907
-0.0988889
0.172788
-0.0865574
0.186278
-0.0766458
0.198636
-0.0684424
0.210024
-0.0619077
0.220637
-0.0567363
0.230603
-0.052889
0.240049
-0.049842
0.249068
-0.047606
0.25768
-0.0455654
0.265831
-0.0431321
0.273335
-0.0385046
0.27986
-0.0322909
0.285395
-0.026786
0.290031
-0.0214931
0.293766
-0.0164779
0.296642
-0.011714
0.298692
-0.00717789
0.29996
-0.00282865
0.300474
0.00134117
0.300243
0.00547773
0.299292
0.00965849
0.297483
0.0143678
0.294579
0.0210016
0.289911
0.0306607
0.281546
0.0610886
0.264165
0.109277
-0.19048
0.216329
-0.159359
0.242328
-0.163228
0.271698
-0.174184
0.29777
-0.157309
0.32318
-0.152382
0.347911
-0.143845
0.370384
-0.128758
0.391002
-0.116244
0.409972
-0.102343
0.42687
-0.0883698
0.441926
-0.0755949
0.45528
-0.0627476
0.466802
-0.0506685
0.476565
-0.0387607
0.484643
-0.0266357
0.490865
-0.0147016
0.495422
-0.00192485
0.498306
0.010953
0.499657
0.0251631
0.499569
0.0396327
0.498248
0.0552746
0.495753
0.0691923
0.491957
0.0799389
0.486114
0.0829206
0.478017
0.0764253
0.46815
0.0680801
0.457457
0.0644609
0.446523
0.0649279
0.435484
0.0679424
0.424344
0.0721813
0.413304
0.077395
0.402712
0.0839499
0.39307
0.0923484
0.384596
0.104065
0.375937
0.122082
0.361795
0.153092
0.334134
0.198945
0.285294
0.292392
0.22207
0.302857
-0.164859
-0.162755
-0.138203
-0.172308
-0.105054
-0.209871
-0.07185
-0.216811
-0.0377437
-0.226003
-0.00252579
-0.234188
0.0313911
-0.229388
0.0618721
-0.21162
0.0890277
-0.191865
0.113268
-0.172096
0.134324
-0.150429
0.152743
-0.131219
0.169203
-0.115349
0.184004
-0.101358
0.197484
-0.090126
0.209928
-0.0808861
0.221507
-0.0734867
0.232363
-0.0675923
0.24263
-0.0631559
0.2524
-0.0596125
0.261745
-0.0569508
0.270677
-0.0544976
0.279172
-0.0516274
0.286985
-0.0463174
0.293886
-0.0391916
0.299793
-0.0326929
0.304733
-0.0264331
0.308759
-0.0205041
0.311868
-0.0148235
0.314125
-0.00943413
0.315532
-0.00423576
0.316153
0.000720014
0.316003
0.00562808
0.31504
0.0106211
0.313224
0.0161836
0.310229
0.0239963
0.305357
0.0355329
0.296976
0.0694698
0.280107
0.126146
-0.189318
0.216502
-0.186542
0.243933
-0.190658
0.274985
-0.205236
0.302258
-0.184582
0.328956
-0.17908
0.354937
-0.169826
0.378428
-0.152248
0.400255
-0.138071
0.420041
-0.12213
0.437876
-0.106205
0.453989
-0.0917074
0.46822
-0.0769783
0.480649
-0.0630976
0.491404
-0.0495165
0.500433
-0.0356642
0.507712
-0.0219812
0.513306
-0.00751787
0.517204
0.00705447
0.519382
0.0229848
0.519968
0.0390474
0.519183
0.0560596
0.517054
0.0713209
0.513505
0.083488
0.508143
0.088283
0.500601
0.0839672
0.491224
0.0774563
0.480834
0.0748515
0.469955
0.0758066
0.458663
0.0792344
0.446941
0.083904
0.434701
0.0896349
0.422023
0.0966279
0.409067
0.105305
0.396432
0.1167
0.38504
0.133474
0.374784
0.163348
0.359236
0.214493
0.322934
0.328694
0.263909
0.361885
-0.162465
-0.189609
-0.134648
-0.200125
-0.0997846
-0.244735
-0.0650567
-0.251539
-0.0295126
-0.261547
0.00707328
-0.270774
0.0422109
-0.264526
0.073581
-0.24299
0.101288
-0.219573
0.125838
-0.196646
0.146991
-0.171582
0.165354
-0.149582
0.181709
-0.131704
0.196406
-0.116055
0.209823
-0.103543
0.222307
-0.0933697
0.233972
-0.0851522
0.245002
-0.0786219
0.255493
-0.0736473
0.26554
-0.0696589
0.275171
-0.0665819
0.284431
-0.0637574
0.293254
-0.0604509
0.301436
-0.0544991
0.308708
-0.0464635
0.314983
-0.0389686
0.320279
-0.0317289
0.324628
-0.024853
0.32802
-0.0182155
0.330499
-0.011913
0.332116
-0.00585259
0.332877
-4.11974e-05
0.33282
0.00568476
0.33191
0.0115318
0.330044
0.0180492
0.326948
0.0270925
0.321889
0.0405922
0.313385
0.0779738
0.297025
0.142506
-0.188989
0.217543
-0.215096
0.246422
-0.219537
0.279174
-0.237988
0.307837
-0.213246
0.336004
-0.207247
0.363342
-0.197164
0.388051
-0.176957
0.410765
-0.160785
0.431663
-0.143027
0.450332
-0.124874
0.467154
-0.10853
0.482203
-0.0920267
0.495496
-0.0763912
0.507054
-0.0610742
0.51689
-0.0455007
0.525051
-0.0301418
0.531425
-0.0138916
0.536029
0.00245008
0.538929
0.0200852
0.540188
0.0377879
0.539991
0.056257
0.53838
0.0729316
0.535254
0.0866143
0.530317
0.0932197
0.523291
0.0909929
0.514396
0.0863514
0.504318
0.08493
0.493642
0.0864826
0.4825
0.0903762
0.470809
0.095595
0.458506
0.101938
0.44549
0.109644
0.431609
0.119186
0.416799
0.13151
0.401444
0.14883
0.387032
0.17776
0.374564
0.226961
0.351092
0.352166
0.301985
0.410993
-0.160646
-0.217952
-0.131473
-0.229298
-0.0948294
-0.281379
-0.0585339
-0.287834
-0.0213346
-0.298747
0.0168352
-0.308944
0.0534468
-0.301138
0.0858775
-0.27542
0.114318
-0.248013
0.139349
-0.221677
0.160718
-0.19295
0.179125
-0.167989
0.195427
-0.148006
0.210029
-0.130657
0.223366
-0.11688
0.235798
-0.105801
0.247513
-0.0968676
0.258645
-0.0897534
0.269301
-0.0843032
0.279571
-0.0799293
0.28949
-0.0765009
0.299022
-0.073289
0.308151
-0.0695803
0.316682
-0.0630301
0.32434
-0.0541216
0.330965
-0.0455934
0.336612
-0.037376
0.341256
-0.0294972
0.344942
-0.0219017
0.347667
-0.014638
0.349465
-0.00765049
0.350376
-0.000952674
0.350398
0.00566287
0.349527
0.012403
0.34766
0.019916
0.34449
0.0302624
0.339255
0.045828
0.330724
0.0865047
0.314945
0.158284
-0.189089
0.219256
-0.245263
0.249685
-0.249966
0.284331
-0.272633
0.314454
-0.243369
0.343912
-0.236705
0.372724
-0.225977
0.398607
-0.20284
0.422462
-0.18464
0.444348
-0.164913
0.463899
-0.144426
0.481582
-0.126212
0.497513
-0.107958
0.511524
-0.0904014
0.523812
-0.0733632
0.534528
-0.0562166
0.543414
-0.039027
0.550595
-0.0210732
0.555972
-0.0029271
0.559686
0.0163712
0.561706
0.035768
0.562023
0.0559407
0.560885
0.0740691
0.558125
0.0893744
0.553551
0.0977938
0.546899
0.0976451
0.538299
0.0949509
0.528443
0.0947862
0.517864
0.0970613
0.506674
0.101566
0.494944
0.107326
0.482592
0.11429
0.469526
0.12271
0.455584
0.133127
0.440478
0.146616
0.423867
0.165441
0.405672
0.195956
0.389526
0.243106
0.371668
0.370025
0.332319
0.450344
-0.159371
-0.24767
-0.12873
-0.259938
-0.0901234
-0.319985
-0.0519664
-0.325991
-0.0130786
-0.337635
0.0269329
-0.348956
0.0650865
-0.339291
0.0987651
-0.309099
0.128111
-0.277359
0.153791
-0.247357
0.175496
-0.214656
0.194019
-0.186511
0.210331
-0.164319
0.224861
-0.145187
0.238106
-0.130126
0.250479
-0.118174
0.262173
-0.108561
0.273345
-0.100926
0.284136
-0.095094
0.294579
-0.0903727
0.304686
-0.0866077
0.314498
-0.0831007
0.323934
-0.0790161
0.332795
-0.0718915
0.340802
-0.0621279
0.347811
-0.0526026
0.35379
-0.0433551
0.358777
-0.0344844
0.362747
-0.0258715
0.365725
-0.0176159
0.367749
-0.0096751
0.368806
-0.00200919
0.368949
0.00551951
0.368136
0.0132163
0.36625
0.0218014
0.362988
0.0335245
0.35763
0.0511862
0.349088
0.0950469
0.333868
0.173503
-0.189797
0.221537
-0.277003
0.253548
-0.281976
0.290125
-0.309211
0.32193
-0.275174
0.353006
-0.267782
0.383294
-0.256264
0.410327
-0.229873
0.435413
-0.209726
0.458339
-0.187838
0.478836
-0.164923
0.497315
-0.144692
0.513889
-0.124532
0.528706
-0.105218
0.541846
-0.0865041
0.553161
-0.0675316
0.56283
-0.0486958
0.570738
-0.0289805
0.5769
-0.00908955
0.581253
0.0120185
0.583892
0.0331283
0.584836
0.0549974
0.584129
0.0747763
0.581782
0.0917212
0.577614
0.101961
0.57139
0.103869
0.563213
0.103128
0.553573
0.104425
0.543003
0.107632
0.531771
0.112798
0.519826
0.119271
0.507228
0.126888
0.493936
0.136002
0.479817
0.147247
0.464631
0.161801
0.447986
0.182087
0.428829
0.215113
0.408662
0.263273
0.390197
0.38849
0.355335
0.485206
-0.158403
-0.279064
-0.126252
-0.29209
-0.0855671
-0.360671
-0.0454752
-0.366083
-0.00461938
-0.37849
0.0372681
-0.390843
0.0771929
-0.379216
0.11227
-0.344176
0.14269
-0.307778
0.169096
-0.273763
0.191278
-0.236837
0.210025
-0.205258
0.22642
-0.180714
0.240911
-0.159677
0.254076
-0.143291
0.266364
-0.130462
0.278009
-0.120206
0.289197
-0.112114
0.300028
-0.105924
0.310592
-0.100937
0.32091
-0.0969255
0.330949
-0.0931398
0.340644
-0.0887107
0.349835
-0.0810833
0.358193
-0.0704854
0.365554
-0.0599641
0.3719
-0.049701
0.377208
-0.0397925
0.381492
-0.0301556
0.384731
-0.0208543
0.386954
-0.0118979
0.388203
-0.00325878
0.388453
0.00527008
0.387703
0.0139657
0.385809
0.0236955
0.382495
0.0368378
0.377004
0.0566785
0.368472
0.103579
0.353878
0.188097
-0.190816
0.224358
-0.310544
0.258129
-0.315748
0.296748
-0.34783
0.330159
-0.308585
0.362851
-0.300474
0.394726
-0.28814
0.423269
-0.258415
0.449495
-0.235953
0.473499
-0.211842
0.494905
-0.18633
0.514289
-0.164075
0.531733
-0.141976
0.547175
-0.12066
0.560948
-0.100277
0.573045
-0.0796287
0.58341
-0.0590608
0.591983
-0.0375533
0.598782
-0.0158888
0.603803
0.00699733
0.607091
0.0298401
0.608625
0.0534642
0.608444
0.0749573
0.60652
0.0936446
0.602743
0.105738
0.59692
0.109693
0.589123
0.110925
0.579738
0.11381
0.569287
0.118082
0.557968
0.124118
0.545855
0.131384
0.532958
0.139784
0.519276
0.149684
0.504768
0.161755
0.489207
0.177362
0.472376
0.198918
0.453389
0.2341
0.431408
0.285254
0.410418
0.40948
0.37602
0.519606
-0.157782
-0.312098
-0.123901
-0.325971
-0.081078
-0.403493
-0.0388898
-0.408272
0.00401278
-0.421393
0.0479546
-0.434785
0.0898302
-0.421092
0.126414
-0.38076
0.158014
-0.339379
0.185331
-0.301079
0.208096
-0.259603
0.227167
-0.224329
0.243678
-0.197226
0.25819
-0.174189
0.271296
-0.156397
0.283506
-0.142672
0.295069
-0.131769
0.30622
-0.123265
0.317089
-0.116793
0.327725
-0.111573
0.33817
-0.107371
0.348396
-0.103365
0.358368
-0.0986836
0.367862
-0.0905772
0.37656
-0.0791828
0.384275
-0.0676796
0.39096
-0.0563864
0.396616
-0.0454478
0.401183
-0.0347232
0.404705
-0.0243762
0.407164
-0.0143571
0.408583
-0.00467739
0.408978
0.00487483
0.408282
0.0146621
0.406405
0.0255719
0.403028
0.0402146
0.39743
0.0622773
0.388971
0.112037
0.375013
0.202055
-0.192326
0.227581
-0.345799
0.263215
-0.351383
0.303996
-0.38861
0.339263
-0.343852
0.373711
-0.334922
0.407232
-0.32166
0.437198
-0.288382
0.464764
-0.263519
0.489836
-0.236914
0.512235
-0.208729
0.532461
-0.184301
0.550652
-0.160166
0.566921
-0.136929
0.581407
-0.114763
0.594129
-0.0923504
0.605096
-0.0700282
0.614344
-0.0468003
0.621829
-0.0233746
0.627484
0.00134227
0.631296
0.0260285
0.633374
0.0513863
0.633649
0.0746818
0.632149
0.0951449
0.628825
0.109063
0.6235
0.115017
0.616097
0.118329
0.607021
0.122886
0.596685
0.128418
0.585345
0.135458
0.573093
0.143636
0.559945
0.152932
0.545891
0.163738
0.530886
0.17676
0.51478
0.193467
0.497396
0.216302
0.478308
0.253188
0.455987
0.307574
0.433193
0.432275
0.398469
0.554331
-0.157373
-0.347051
-0.121826
-0.361517
-0.076634
-0.448686
-0.0322506
-0.452655
0.0129
-0.466543
0.0591116
-0.480996
0.102961
-0.464941
0.141253
-0.419053
0.17416
-0.372286
0.202489
-0.329409
0.225935
-0.283048
0.245415
-0.243809
0.262162
-0.213973
0.276743
-0.188771
0.289818
-0.169471
0.301954
-0.154808
0.313436
-0.143251
0.324523
-0.134352
0.335362
-0.127633
0.346045
-0.122256
0.356583
-0.117909
0.366983
-0.113765
0.377169
-0.10887
0.386959
-0.100367
0.395973
-0.0881976
0.404029
-0.0757354
0.411059
-0.0634162
0.417023
-0.0514121
0.421916
-0.0396156
0.425716
-0.0281763
0.428421
-0.0170624
0.430046
-0.00630235
0.430572
0.00434874
0.429967
0.0152674
0.428096
0.0274422
0.424697
0.0436138
0.419021
0.0679538
0.410599
0.120458
0.397321
0.215333
-0.194073
0.231276
-0.383002
0.268878
-0.388985
0.31196
-0.431693
0.349121
-0.381013
0.385356
-0.371157
0.42064
-0.356945
0.452159
-0.319901
0.481045
-0.292405
0.507356
-0.263225
0.530759
-0.232131
0.551958
-0.205501
0.570942
-0.17915
0.587931
-0.153918
0.603101
-0.129933
0.616374
-0.105624
0.628029
-0.0816828
0.637898
-0.0566698
0.645972
-0.0314483
0.652252
-0.00493786
0.656684
0.0215964
0.659265
0.0488053
0.660039
0.0739083
0.658985
0.0961986
0.656073
0.111975
0.651162
0.119928
0.644166
0.125324
0.635425
0.131628
0.625275
0.138568
0.613956
0.146778
0.601591
0.156001
0.588202
0.166321
0.573818
0.178122
0.558346
0.192232
0.541708
0.210104
0.523652
0.234358
0.504
0.27284
0.481472
0.330102
0.45793
0.455817
0.423449
0.588813
-0.157335
-0.383789
-0.119745
-0.399108
-0.0721686
-0.496262
-0.025406
-0.499418
0.0220631
-0.514013
0.0706125
-0.529546
0.11673
-0.511058
0.156815
-0.459138
0.191198
-0.406669
0.220642
-0.358852
0.244877
-0.307284
0.264839
-0.263771
0.281875
-0.231008
0.296571
-0.203467
0.309644
-0.182544
0.321734
-0.166898
0.333142
-0.154659
0.344134
-0.145344
0.354929
-0.138428
0.36562
-0.132947
0.376223
-0.128512
0.38674
-0.124282
0.397135
-0.119265
0.407181
-0.110413
0.416495
-0.0975111
0.424874
-0.0841143
0.432237
-0.0707798
0.438544
-0.0577186
0.443749
-0.0448209
0.447834
-0.0322609
0.450783
-0.0200113
0.4526
-0.00811991
0.453285
0.00366389
0.452772
0.0157808
0.450934
0.0292803
0.447505
0.047042
0.441784
0.0736753
0.433488
0.128754
0.420862
0.227959
-0.196129
0.23544
-0.422313
0.275068
-0.428613
0.320567
-0.477191
0.359688
-0.420134
0.397859
-0.409328
0.435102
-0.394187
0.468154
-0.352952
0.498491
-0.322742
0.526166
-0.2909
0.550678
-0.256644
0.572773
-0.227596
0.592615
-0.198992
0.610245
-0.171548
0.626099
-0.145788
0.640132
-0.119657
0.652358
-0.0939086
0.662829
-0.0671407
0.671464
-0.0400833
0.67821
-0.0116842
0.683165
0.0166419
0.686284
0.0456855
0.687475
0.0727177
0.686862
0.096812
0.684387
0.11445
0.679934
0.12438
0.673411
0.131848
0.66497
0.140069
0.655023
0.148515
0.643796
0.158004
0.631356
0.168442
0.61778
0.179896
0.603071
0.192832
0.587219
0.208084
0.570057
0.227266
0.551347
0.253069
0.530951
0.293236
0.507984
0.353069
0.484046
0.479755
0.450422
0.622438
-0.157386
-0.422533
-0.117913
-0.438581
-0.0676727
-0.546502
-0.0184221
-0.548668
0.0315422
-0.563977
0.0826641
-0.580668
0.131079
-0.559473
0.17315
-0.501209
0.209063
-0.442582
0.239776
-0.389565
0.264875
-0.332384
0.285447
-0.284342
0.302844
-0.248406
0.317723
-0.218346
0.330854
-0.195675
0.342898
-0.178942
0.354221
-0.165982
0.365147
-0.15627
0.375871
-0.149152
0.386525
-0.143601
0.397155
-0.139142
0.407783
-0.13491
0.418347
-0.129829
0.428623
-0.12069
0.438234
-0.107122
0.446917
-0.0927972
0.454601
-0.0784644
0.461218
-0.0643352
0.466736
-0.0503386
0.471096
-0.0366214
0.474308
-0.0232232
0.476355
-0.0101668
0.477184
0.00283453
0.47679
0.0161753
0.475002
0.0310683
0.471562
0.0504809
0.465824
0.0794147
0.457624
0.136954
0.445696
0.239887
-0.198546
0.240019
-0.463786
0.28178
-0.470374
0.329797
-0.525208
0.370989
-0.461326
0.411283
-0.449622
0.450485
-0.433389
0.485248
-0.387715
0.517149
-0.354643
0.546126
-0.319877
0.571743
-0.28226
0.59484
-0.250694
0.615566
-0.219718
0.634076
-0.190057
0.650569
-0.16228
0.665195
-0.134283
0.678007
-0.10672
0.689025
-0.0781592
0.698205
-0.0492628
0.705577
-0.0190559
0.711005
0.0112131
0.714549
0.042142
0.716231
0.0710354
0.716011
0.0970317
0.713954
0.116508
0.709922
0.128412
0.703823
0.137947
0.695771
0.148121
0.686057
0.158229
0.674907
0.169154
0.662426
0.180923
0.648698
0.193624
0.633727
0.207803
0.617463
0.224348
0.599813
0.244917
0.580539
0.272343
0.559454
0.314322
0.535795
0.376727
0.511439
0.504112
0.478846
0.655031
-0.157636
-0.463443
-0.116014
-0.480202
-0.0630682
-0.599448
-0.0111843
-0.600552
0.0414298
-0.616591
0.0952441
-0.634482
0.146163
-0.610391
0.190313
-0.545359
0.227932
-0.480202
0.259975
-0.421608
0.286073
-0.358482
0.307296
-0.305565
0.325116
-0.266226
0.340239
-0.233469
0.353459
-0.208895
0.365509
-0.190992
0.376765
-0.177238
0.3876
-0.167105
0.398245
-0.159796
0.408855
-0.154211
0.419481
-0.149768
0.430162
-0.145591
0.440872
-0.140538
0.451384
-0.131202
0.461243
-0.116981
0.470207
-0.101761
0.478196
-0.0864532
0.485125
-0.0712645
0.490951
-0.056164
0.495613
-0.0412835
0.499083
-0.0266937
0.50133
-0.0124138
0.502355
0.00180937
0.502068
0.0164624
0.500345
0.0327911
0.496919
0.0539072
0.491178
0.0851559
0.483139
0.144992
0.471928
0.251098
-0.201173
0.244869
-0.507482
0.288963
-0.514467
0.339664
-0.57591
0.383095
-0.504757
0.425554
-0.492081
0.466796
-0.474631
0.50342
-0.42434
0.536938
-0.38816
0.567303
-0.350242
0.594158
-0.309116
0.618397
-0.274932
0.639986
-0.241307
0.659268
-0.20934
0.676497
-0.179509
0.691726
-0.149513
0.705138
-0.120132
0.716692
-0.0897123
0.726422
-0.0589929
0.734235
-0.0268689
0.740178
0.00526955
0.74416
0.0381604
0.746225
0.0689706
0.746443
0.0968138
0.744787
0.118164
0.741214
0.131984
0.735525
0.143636
0.727836
0.15581
0.71838
0.167684
0.707342
0.180193
0.694875
0.19339
0.681013
0.207486
0.665796
0.22302
0.64918
0.240963
0.631064
0.263032
0.611262
0.292145
0.589509
0.336076
0.565175
0.401061
0.540279
0.529008
0.508584
0.686727
-0.158037
-0.506579
-0.114202
-0.524037
-0.0583841
-0.655266
-0.00366288
-0.655273
0.0517307
-0.671984
0.108358
-0.69111
0.161987
-0.66402
0.208329
-0.5917
0.247787
-0.519659
0.281275
-0.455096
0.308428
-0.385635
0.330394
-0.32753
0.348734
-0.284566
0.36415
-0.248884
0.377509
-0.222255
0.389602
-0.203085
0.400823
-0.188459
0.411581
-0.177863
0.422138
-0.170354
0.432672
-0.164744
0.443283
-0.160379
0.453999
-0.156307
0.464824
-0.151363
0.47551
-0.141888
0.485599
-0.12707
0.494844
-0.111006
0.503117
-0.0947266
0.510359
-0.0785058
0.516472
-0.0622774
0.521423
-0.0462345
0.525155
-0.0304254
0.527649
-0.0149083
0.528842
0.000616012
0.528678
0.016627
0.527042
0.034427
0.523639
0.0573097
0.517957
0.0908386
0.510072
0.152877
0.499547
0.261623
-0.20412
0.250221
-0.553583
0.296757
-0.561003
0.350151
-0.629303
0.396049
-0.550654
0.440682
-0.536714
0.484198
-0.518148
0.522677
-0.462818
0.557915
-0.423399
0.589827
-0.382154
0.617997
-0.337286
0.643227
-0.300162
0.665859
-0.263939
0.685912
-0.229393
0.703861
-0.197459
0.719826
-0.165477
0.733777
-0.134083
0.745902
-0.101837
0.75612
-0.0692112
0.76446
-0.0352095
0.770811
-0.0010812
0.775205
0.0337667
0.777714
0.0664615
0.778263
0.0962643
0.777002
0.119425
0.773818
0.135169
0.768543
0.14891
0.761241
0.163113
0.752067
0.176858
0.741223
0.191037
0.728771
0.205841
0.714812
0.221445
0.699367
0.238465
0.682416
0.257915
0.663878
0.28157
0.643512
0.312512
0.621204
0.358383
0.596225
0.426039
0.570688
0.554546
0.539767
0.717649
-0.15864
-0.552059
-0.112421
-0.570257
-0.0535171
-0.71417
0.00411511
-0.712906
0.0625045
-0.730374
0.122148
-0.750754
0.178524
-0.720396
0.227297
-0.640473
0.268667
-0.56103
0.303752
-0.490181
0.33207
-0.413954
0.354867
-0.350327
0.373772
-0.303471
0.38954
-0.264652
0.403095
-0.23581
0.41524
-0.215231
0.426464
-0.199682
0.437142
-0.188541
0.447612
-0.180824
0.458068
-0.1752
0.468633
-0.170945
0.479363
-0.167037
0.490283
-0.162283
0.501134
-0.152739
0.511439
-0.137375
0.520916
-0.120482
0.529452
-0.103263
0.536963
-0.0860175
0.54338
-0.0686941
0.548603
-0.0514576
0.552611
-0.0344332
0.555321
-0.0176184
0.556721
-0.000784114
0.55672
0.0166285
0.555149
0.0359981
0.551834
0.0606244
0.546201
0.0964717
0.538547
0.16053
0.528718
0.271452
-0.207298
0.25593
-0.602215
0.304941
-0.610015
0.361403
-0.685766
0.409618
-0.598869
0.456775
-0.583871
0.502563
-0.563936
0.543153
-0.503408
0.580128
-0.460374
0.613628
-0.415654
0.643136
-0.366794
0.669649
-0.326675
0.693216
-0.287506
0.714214
-0.25039
0.732922
-0.216167
0.749517
-0.182073
0.764086
-0.148652
0.77672
-0.114471
0.787406
-0.0798969
0.796153
-0.0439568
0.802946
-0.00787345
0.807777
0.028935
0.810587
0.0636517
0.811509
0.0953428
0.810638
0.120296
0.807844
0.137963
0.803012
0.153742
0.796081
0.170043
0.787187
0.185753
0.776498
0.201725
0.764132
0.218207
0.750114
0.235464
0.73448
0.254098
0.717228
0.275167
0.698273
0.300524
0.677427
0.333358
0.654553
0.381257
0.629005
0.451588
0.602863
0.580688
0.572581
0.74793
-0.159346
-0.60001
-0.110621
-0.618982
-0.0484975
-0.776293
0.0122062
-0.773609
0.0737388
-0.791906
0.136576
-0.813591
0.195961
-0.779781
0.247215
-0.691726
0.290662
-0.604477
0.327406
-0.526925
0.356996
-0.443543
0.380709
-0.374041
0.400248
-0.32301
0.416443
-0.280847
0.430237
-0.249604
0.442499
-0.227492
0.453723
-0.210907
0.464359
-0.199177
0.474745
-0.19121
0.485139
-0.185594
0.495631
-0.181437
0.506367
-0.177773
0.517345
-0.17326
0.528336
-0.16373
0.538831
-0.14787
0.548511
-0.130162
0.55731
-0.112062
0.565087
-0.093794
0.571756
-0.075364
0.577282
-0.0569833
0.58154
-0.0386912
0.584496
-0.0205747
0.586074
-0.00236206
0.586226
0.0164769
0.584793
0.0374307
0.581541
0.0638762
0.576035
0.101979
0.568589
0.167976
0.559465
0.280576
-0.210763
0.262016
-0.653468
0.313702
-0.661701
0.373221
-0.745284
0.42416
-0.649808
0.473765
-0.633476
0.522085
-0.612256
0.564697
-0.54602
0.603629
-0.499306
0.638831
-0.450857
0.669827
-0.39779
0.697522
-0.354369
0.722245
-0.312229
0.744127
-0.272273
0.763632
-0.235672
0.780871
-0.199312
0.796076
-0.163857
0.809212
-0.127607
0.820368
-0.0910528
0.829594
-0.0531831
0.83676
-0.0150396
0.841924
0.0237713
0.845097
0.0604784
0.84635
0.0940895
0.84582
0.120826
0.843415