/*--------------------------------*- C++ -*----------------------------------*\
| =========                 |                                                 |
| \\      /  F ield         | OpenFOAM: The Open Source CFD Toolbox           |
|  \\    /   O peration     | Version:  2312                                  |
|   \\  /    A nd           | Website:  www.openfoam.com                      |
|    \\/     M anipulation  |                                                 |
\*---------------------------------------------------------------------------*/
FoamFile
{
    version     2.0;
    format      ascii;
    arch        "LSB;label=32;scalar=64";
    class       volSymmTensorField;
    location    "350";
    object      turbulenceProperties:R;
}
// * * * * * * * * * * * * * * * * * * * * * * * * * * * * * * * * * * * * * //

dimensions      [0 2 -2 0 0 0 0];

internalField   nonuniform List<symmTensor> 
10720
(
(0.0144994 0.00306896 -1.2002e-21 0.0120409 -4.48872e-20 0.0134179)
(0.0172874 0.00364592 8.00553e-22 0.0136453 5.09231e-20 0.0155761)
(0.0210796 0.00423443 1.24093e-20 0.0153264 5.24726e-20 0.0184324)
(0.0262516 0.00499625 6.03325e-20 0.0176193 4.92428e-19 0.0222321)
(0.0326231 0.00571485 -2.53307e-19 0.020053 -1.01484e-18 0.0266731)
(0.0409556 0.00622522 -3.09946e-19 0.0227827 -6.31768e-19 0.0323725)
(0.0517352 0.00649552 1.12449e-19 0.026118 1.08669e-20 0.0395691)
(0.0651941 0.00618135 6.25575e-20 0.0300857 9.89145e-20 0.0484275)
(0.0821936 0.00491667 1.66118e-19 0.0351322 -1.34184e-19 0.0596918)
(0.103574 0.00243305 -2.59262e-20 0.0419337 -2.60116e-20 0.0740148)
(0.13062 -0.00179554 3.01568e-18 0.0513632 1.21582e-18 0.0925404)
(0.165475 -0.00835574 -7.26415e-19 0.0647941 -5.5791e-19 0.117026)
(0.211098 -0.0181764 1.48308e-18 0.0840981 -2.22668e-18 0.149906)
(0.272364 -0.0328502 7.29178e-19 0.112295 1.56453e-18 0.195183)
(0.357567 -0.0550364 1.15204e-18 0.154542 -2.04246e-18 0.259679)
(0.479523 -0.0890661 4.74318e-19 0.219198 7.23102e-18 0.354052)
(0.663315 -0.143549 3.65952e-17 0.322827 1.9485e-17 0.499464)
(0.940227 -0.230782 -1.02898e-17 0.488997 1.38424e-17 0.72337)
(1.41749 -0.387164 -4.13328e-18 0.789799 -6.70876e-17 1.11651)
(2.14085 -0.639991 2.21818e-18 1.27814 -4.3272e-19 1.72771)
(3.75131 -1.21259 -6.58686e-17 2.40006 -8.96119e-17 3.10474)
(6.10057 -2.11277 1.57281e-16 4.18484 4.76896e-16 5.18185)
(13.8376 -5.12804 -2.57334e-16 10.2547 -9.31606e-16 12.1244)
(25.9897 -10.3103 4.53094e-16 21.05 1.24281e-16 23.6451)
(27.6365 -11.646 -2.48607e-16 24.5389 -1.19287e-17 26.1495)
(25.5042 -11.2278 2.09881e-17 24.4623 -1.28056e-15 24.9662)
(24.3982 -11.0435 2.70115e-16 24.7193 -6.42648e-17 24.514)
(24.3274 -11.226 1.95539e-16 25.6818 4.12488e-16 24.9674)
(24.4125 -11.4397 1.14965e-15 26.7011 5.60176e-16 25.5321)
(24.1182 -11.4525 1.04789e-15 27.2696 4.51078e-15 25.6814)
(23.3922 -11.2383 -2.01172e-15 27.3057 -1.73963e-15 25.3515)
(22.3203 -10.8322 -2.17638e-15 26.8563 -3.02245e-15 24.604)
(20.8778 -10.2189 -9.24733e-16 25.8493 -3.97048e-15 23.3859)
(19.0933 -9.41238 -2.96416e-15 24.2874 -5.58116e-15 21.7134)
(16.9488 -8.40431 1.07406e-15 22.1123 2.92164e-15 19.5519)
(14.5057 -7.22578 1.80045e-16 19.3645 2.16234e-15 16.9516)
(11.3423 -5.67229 -4.6011e-17 15.4761 3.65069e-18 13.4293)
(8.32889 -4.17064 -1.78638e-15 11.4996 -1.07463e-16 9.91679)
(1.83856 -0.926239 -3.59591e-16 2.78409 -1.68866e-15 2.31014)
(0.0120306 0.00257363 8.65922e-22 0.0106527 -3.09854e-21 0.0113956)
(0.0101313 0.00212457 -4.47458e-21 0.00934095 4.54461e-21 0.00982585)
(0.00808352 0.00164678 -2.3277e-20 0.00782771 -1.61888e-20 0.00800014)
(0.00638621 0.00123977 2.27019e-20 0.00644559 -3.24232e-20 0.00644627)
(0.00486396 0.000879252 -2.59215e-20 0.00505133 -2.57634e-20 0.00497275)
(0.00355282 0.000586758 -1.21226e-19 0.0037266 1.47206e-19 0.00363941)
(0.00253026 0.000377499 3.68529e-20 0.00261713 1.23427e-19 0.00255736)
(0.00194581 0.000261427 -1.7795e-20 0.00191635 -1.59918e-19 0.00190787)
(0.0021134 0.00027794 8.9793e-20 0.00191822 2.19966e-21 0.00199809)
(0.00295768 0.000385212 -7.69187e-20 0.0024702 -2.21218e-20 0.00271138)
(0.00451418 0.000623794 7.74632e-20 0.00352068 1.86742e-19 0.00402713)
(0.00693493 0.00109492 1.82192e-19 0.00509601 -8.53e-20 0.00603432)
(0.0105115 0.00197138 -2.02499e-19 0.00732791 -5.83393e-20 0.00895502)
(0.0156722 0.00349508 1.3563e-20 0.010466 9.61999e-20 0.0131341)
(0.0229286 0.00591725 8.38237e-19 0.014895 1.78235e-19 0.0190119)
(0.0330171 0.00952935 8.31514e-19 0.0213037 -1.75549e-19 0.0273107)
(0.0472581 0.014752 3.85353e-19 0.0308182 6.00887e-19 0.0392445)
(0.0681573 0.0224726 2.84084e-19 0.0454412 6.03707e-19 0.0570844)
(0.100395 0.0344341 3.04253e-19 0.0687639 -1.71862e-19 0.0849706)
(0.152279 0.0539222 5.79617e-19 0.107407 2.53736e-20 0.130417)
(0.240263 0.087482 -8.77717e-19 0.174642 -5.32373e-18 0.208327)
(0.393897 0.147336 -3.10469e-18 0.295568 -1.02236e-19 0.34619)
(0.682824 0.262502 2.9539e-18 0.530365 5.21414e-18 0.609249)
(1.22829 0.486458 2.13466e-18 0.992728 -5.6416e-19 1.11595)
(2.39595 0.978068 7.46088e-17 2.02215 -1.51405e-17 2.2208)
(4.80329 2.01617 -1.11662e-18 4.23144 -1.16179e-17 4.54191)
(10.5249 4.5311 1.98023e-19 9.66661 7.29852e-18 10.1534)
(21.2642 9.3673 2.27237e-18 20.3418 -6.98121e-20 20.9235)
(29.5445 13.2903 3.31317e-19 29.4241 4.4869e-21 29.6405)
(32.6382 14.9582 3.64854e-16 33.7973 5.08896e-18 33.3653)
(33.0574 15.397 -4.19996e-18 35.5106 -2.17031e-19 34.4074)
(32.6453 15.4169 -2.64519e-17 36.284 3.60731e-17 34.5656)
(31.9225 15.2548 -2.24287e-15 36.621 -1.86749e-16 34.3554)
(30.9815 14.9547 -4.02473e-15 36.6004 -2.58947e-16 33.8613)
(29.8493 14.5325 3.5859e-15 36.2454 3.91292e-16 33.1079)
(28.5627 14.0095 -2.69021e-17 35.602 1.3702e-16 32.1352)
(26.9096 13.2865 1.36077e-18 34.4274 -5.27289e-16 30.7166)
(25.117 12.4693 -1.93929e-16 32.9253 2.82913e-16 29.0661)
(20.1426 10.0653 -3.51026e-15 27.4156 1.25536e-16 23.789)
(0.0022671 -0.000155253 -1.397e-21 0.00189645 -4.27577e-21 0.00205175)
(0.00222409 -0.000181976 2.5077e-21 0.00191886 5.67769e-21 0.002038)
(0.00215866 -0.000204457 -1.10664e-22 0.00194122 1.59082e-23 0.0020104)
(0.00205933 -0.000211723 5.10323e-21 0.00192653 7.58047e-22 0.00194816)
(0.00192974 -0.000206757 3.44464e-21 0.00187664 2.99359e-20 0.00185483)
(0.00178983 -0.000193312 2.25504e-20 0.0018098 3.94327e-20 0.00174789)
(0.00164017 -0.000173017 -1.11867e-20 0.00171469 1.8014e-21 0.0016224)
(0.00148396 -0.000149085 -9.35245e-21 0.00159449 -2.45555e-21 0.00148235)
(0.00133655 -0.000125537 -5.24505e-20 0.00146801 -5.7941e-20 0.001344)
(0.00119892 -0.000104531 -1.75613e-20 0.00133682 -5.78512e-21 0.00120849)
(0.00107268 -8.69453e-05 -1.5298e-19 0.00120612 -1.49431e-19 0.00107994)
(0.000987037 -7.80261e-05 -1.90456e-21 0.00111436 2.61256e-20 0.000989129)
(0.000976247 -8.37229e-05 -9.65279e-20 0.00110644 2.8495e-21 0.000969219)
(0.00107588 -0.000114032 8.99876e-20 0.00122311 5.34816e-20 0.00104869)
(0.00141263 -0.000214185 -3.28099e-19 0.00159286 -9.56711e-20 0.00132289)
(0.00229568 -0.000517993 1.51656e-18 0.0024496 3.67578e-19 0.00199421)
(0.00462395 -0.00138407 -2.99212e-18 0.00434381 -2.60055e-18 0.00368294)
(0.0101332 -0.00334559 -5.41388e-18 0.00824613 -2.19364e-18 0.00777166)
(0.025014 -0.00841776 -1.15644e-17 0.0184713 4.87759e-18 0.0193156)
(0.0615445 -0.0208241 2.30569e-18 0.0434451 -2.01949e-20 0.0486802)
(0.180366 -0.0620319 2.16871e-17 0.126241 3.20003e-17 0.146742)
(0.490366 -0.173546 -4.1399e-17 0.349366 -1.26062e-16 0.410604)
(1.4705 -0.541969 -2.204e-18 1.09035 2.26158e-16 1.26882)
(4.60977 -1.7786 5.20466e-18 3.60637 -8.71754e-17 4.10393)
(8.80642 -3.54507 -0 7.28517 -0 8.08127)
(12.9243 -5.39801 -2.56305e-17 11.289 6.08528e-16 12.188)
(16.5665 -7.15377 -6.82508e-17 15.2868 4.69354e-17 16.0343)
(18.8735 -8.39693 -1.10721e-16 18.3895 -4.76098e-16 18.7448)
(18.9087 -8.63748 -9.74197e-16 19.4344 -2.62909e-15 19.2706)
(16.9105 -7.89801 3.87874e-16 18.284 -8.29681e-15 17.6592)
(14.0819 -6.69202 -1.09065e-16 15.9362 5.63929e-15 15.0217)
(11.3793 -5.47799 -3.38857e-16 13.3941 7.39131e-15 12.3594)
(9.25592 -4.49827 -2.19859e-15 11.2545 4.27066e-15 10.2106)
(7.67156 -3.75354 6.48136e-15 9.5629 1.54336e-14 8.57279)
(6.48024 -3.18646 -4.13451e-16 8.23193 -2.76564e-15 7.32008)
(5.56433 -2.74352 6.23848e-15 7.14799 -3.67463e-15 6.32544)
(4.91742 -2.43228 -2.24025e-16 6.39253 4.92611e-17 5.63492)
(4.36057 -2.13699 3.17437e-15 5.51654 7.05127e-16 4.88561)
(4.49738 -2.25518 5.72148e-15 5.98304 6.56089e-15 5.37367)
(0.00227294 -0.000117571 1.62863e-21 0.00185002 5.33044e-21 0.0020358)
(0.0022616 -7.76407e-05 -1.06029e-21 0.00180469 -2.26573e-20 0.0020088)
(0.00221003 -2.67227e-05 -1.44027e-20 0.00173913 -4.80045e-20 0.00195515)
(0.00211615 3.07905e-05 2.69104e-21 0.00166075 6.90688e-20 0.00187428)
(0.00197225 8.48904e-05 3.23509e-20 0.0015696 -3.04841e-20 0.00176328)
(0.00177355 0.000127799 -9.31994e-21 0.0014604 -5.07189e-20 0.00161496)
(0.00153867 0.000150826 5.11539e-20 0.00133587 -1.10758e-19 0.00143917)
(0.00131419 0.000152955 -8.77422e-20 0.00121221 -1.18906e-20 0.00126831)
(0.00111354 0.000139697 -4.79107e-20 0.00109253 1.08905e-19 0.00110892)
(0.000921936 0.000116359 -1.43835e-20 0.000968424 -5.49633e-21 0.000948615)
(0.000751507 8.77045e-05 -2.32098e-20 0.000839685 -5.3151e-20 0.00079483)
(0.000614987 6.18792e-05 4.69615e-21 0.000717199 -2.75497e-20 0.000661721)
(0.000506786 4.21471e-05 1.83321e-20 0.00060597 4.70735e-20 0.00054987)
(0.000418996 2.82126e-05 -1.54891e-20 0.000507059 -1.05445e-20 0.000455569)
(0.000346717 1.88848e-05 -8.61067e-21 0.000420701 -3.08397e-20 0.000376053)
(0.000286785 1.28388e-05 -2.89233e-20 0.00034664 -8.83172e-21 0.000309377)
(0.000236369 8.97555e-06 -4.74107e-21 0.000283088 -6.21344e-23 0.000253108)
(0.00019379 6.4564e-06 -2.73176e-22 0.000228973 -2.45958e-21 0.00020574)
(0.000156383 4.61653e-06 -2.29842e-21 0.000181428 1.65572e-21 0.00016444)
(0.000121923 3.10745e-06 3.06987e-21 0.000138143 -1.04867e-21 0.00012685)
(8.72594e-05 1.7392e-06 -1.15977e-20 9.58652e-05 8.58304e-21 8.97098e-05)
(5.24496e-05 6.64616e-07 -1.02762e-21 5.5581e-05 2.12968e-22 5.32739e-05)
(1.8481e-05 8.35035e-08 -5.02092e-24 1.88625e-05 -1.28489e-22 1.85709e-05)
(3.03607e-06 2.27636e-09 1.66522e-23 3.04597e-06 9.2421e-25 3.03801e-06)
(7.72215e-06 1.60303e-08 -9.14018e-23 7.78185e-06 7.81878e-24 7.73099e-06)
(0.000851135 0.000192892 -8.68788e-19 0.00142931 1.91059e-19 0.000910775)
(0.00451788 0.00133202 -8.03187e-20 0.00782163 -1.21564e-19 0.00474094)
(0.0372357 0.011964 -6.56054e-21 0.0620937 -3.43254e-19 0.0383202)
(0.128084 0.0458955 -4.97532e-20 0.204214 -6.76059e-22 0.130577)
(0.256244 0.102676 2.70871e-18 0.38614 2.25464e-18 0.261132)
(0.390982 0.170633 1.84586e-19 0.554212 -1.00682e-18 0.401626)
(0.512535 0.235192 4.71252e-18 0.689709 -1.75232e-17 0.533255)
(0.614408 0.289327 2.45531e-15 0.799413 1.76519e-16 0.648416)
(0.701277 0.33488 2.30236e-15 0.897971 1.24238e-16 0.750503)
(0.778803 0.375313 -2.13818e-15 0.995045 -2.5217e-16 0.844973)
(0.856904 0.415497 2.07378e-15 1.09892 2.72103e-16 0.940184)
(0.934315 0.456115 -3.67704e-15 1.21463 -5.42769e-16 1.04029)
(1.13394 0.552236 -3.42271e-15 1.45538 -7.47037e-16 1.25439)
(1.57414 0.775643 -3.41858e-15 1.97919 -1.03674e-16 1.79196)
(0.00151786 -0.000120506 -6.0397e-22 0.00125061 -2.17638e-21 0.00139948)
(0.00147805 -0.000143661 -1.29862e-20 0.00126635 -3.06234e-20 0.00139065)
(0.00140945 -0.000159869 9.56726e-21 0.00127074 2.28705e-20 0.00136162)
(0.00131992 -0.000165127 1.32221e-20 0.00126221 2.50326e-20 0.00131714)
(0.00122894 -0.000160349 2.39575e-20 0.00125145 3.46053e-20 0.00126982)
(0.00113522 -0.000144949 -7.3686e-20 0.00123357 -1.2897e-19 0.0012176)
(0.001047 -0.000120403 5.175e-20 0.00120874 1.03874e-19 0.00116506)
(0.000973143 -9.0362e-05 6.9115e-20 0.00118115 6.16701e-20 0.0011176)
(0.000915143 -5.71724e-05 -3.97466e-21 0.00115186 8.36969e-21 0.00107682)
(0.000875422 -2.41339e-05 4.22186e-20 0.00112363 7.52668e-20 0.00104544)
(0.000850772 6.5894e-06 -9.18634e-20 0.00109585 -4.34633e-21 0.00102104)
(0.000842058 3.35401e-05 1.25567e-19 0.00107456 1.39331e-19 0.00100689)
(0.000846836 5.60685e-05 5.94676e-20 0.00106212 2.44201e-20 0.00100267)
(0.000864264 7.5368e-05 3.01156e-20 0.00106221 -2.87634e-20 0.00101046)
(0.000877685 8.9157e-05 8.61773e-20 0.00105523 8.51508e-20 0.00101076)
(0.000865981 9.36302e-05 -2.05176e-19 0.0010168 -2.09252e-19 0.000979761)
(0.000762216 7.56124e-05 3.86538e-20 0.000864436 5.65298e-20 0.000839174)
(0.00068277 6.3017e-05 2.62136e-19 0.000756828 7.68997e-20 0.000737746)
(0.000170692 3.95181e-06 5.00352e-21 0.000174862 3.68453e-21 0.000173702)
(0.00344131 0.00149179 -6.09728e-19 0.00490927 -4.2384e-20 0.00445646)
(0.0068495 0.00344488 1.79939e-18 0.0101121 -3.97138e-18 0.00898159)
(0.00339284 0.00167122 2.3273e-19 0.00497379 2.00675e-18 0.00434875)
(0.00073753 0.000343349 6.38195e-18 0.00135946 -1.31184e-18 0.00101752)
(0.0222962 -0.00870147 -1.05601e-17 0.0180757 -4.40582e-18 0.019506)
(0.147409 -0.0589818 2.62679e-19 0.122738 6.66109e-19 0.132073)
(0.469962 -0.194477 -5.7589e-17 0.409419 1.64628e-17 0.433415)
(1.15081 -0.49127 2.00595e-17 1.05037 8.28932e-18 1.09157)
(2.53405 -1.11002 -2.54965e-17 2.41399 -2.11054e-18 2.46325)
(4.91609 -2.20074 -6.35498e-16 4.87233 6.49276e-16 4.88404)
(7.95965 -3.63382 -1.08409e-15 8.20288 3.35157e-17 8.07652)
(10.5719 -4.91669 3.90423e-15 11.3416 -1.15009e-15 10.9647)
(11.6813 -5.52568 3.18493e-15 13.0509 1.73703e-15 12.3878)
(11.1893 -5.36815 -1.54714e-16 12.985 4.30039e-15 12.1108)
(9.8765 -4.7878 6.63721e-15 11.8346 -5.04416e-15 10.8682)
(8.45691 -4.12875 5.15995e-15 10.3854 -2.92463e-15 9.42339)
(7.1933 -3.52412 -9.57935e-15 8.95351 -3.55063e-15 8.06894)
(6.2155 -3.05378 -2.70064e-17 7.81194 -1.68909e-15 7.01511)
(5.27532 -2.55665 6.26802e-15 6.35444 -1.58441e-15 5.79075)
(5.6809 -2.81485 -1.30979e-14 7.35095 4.22396e-15 6.54293)
(0.00155222 -9.11084e-05 -2.83947e-21 0.0012388 -6.86501e-21 0.00140941)
(0.0015657 -5.92753e-05 -2.35641e-21 0.00122371 -2.58434e-21 0.00140586)
(0.00157112 -2.04331e-05 2.12352e-20 0.00121258 3.71842e-20 0.00140044)
(0.0015439 2.0805e-05 -1.27904e-20 0.00119227 -6.25734e-22 0.0013735)
(0.0014846 6.12849e-05 3.04414e-21 0.00116499 1.59636e-20 0.00132793)
(0.00138229 9.45465e-05 -4.96983e-21 0.00112071 5.04167e-20 0.00125263)
(0.00124282 0.00011529 -1.14485e-20 0.0010571 4.76743e-20 0.00114979)
(0.00108705 0.000121548 1.33474e-19 0.000979575 9.63423e-20 0.00103374)
(0.000943536 0.000117564 1.99242e-20 0.00090638 -2.61727e-20 0.000925791)
(0.00080312 0.000104289 7.13354e-20 0.000824296 9.32123e-21 0.000814311)
(0.000664149 8.44561e-05 -5.56134e-20 0.000723583 -3.73404e-20 0.000694626)
(0.00053887 6.38451e-05 -4.01963e-20 0.00061642 6.17002e-20 0.000579082)
(0.00043263 4.57766e-05 4.33855e-20 0.00051444 -2.196e-20 0.000475872)
(0.000344883 3.11669e-05 3.57201e-20 0.00042275 -1.30454e-22 0.000387139)
(0.00027481 2.01007e-05 -2.57981e-20 0.000344668 2.48846e-20 0.000313895)
(0.000219736 1.20351e-05 -1.86479e-20 0.000280103 4.50071e-20 0.000254783)
(0.000177759 6.39129e-06 4.53035e-20 0.000228864 -2.77682e-20 0.000208697)
(0.000146508 2.47194e-06 4.2269e-20 0.00018942 -7.71925e-21 0.000173742)
(0.000124171 -2.99857e-07 1.66309e-20 0.000160369 -1.47447e-21 0.000148289)
(0.000108453 -2.41398e-06 -5.64593e-21 0.000139161 2.08928e-20 0.00013002)
(9.79639e-05 -4.1648e-06 7.99044e-20 0.000124204 9.87862e-21 0.000117437)
(9.16482e-05 -5.84945e-06 3.20357e-21 0.000113943 -1.48583e-20 0.000109336)
(8.90456e-05 -7.6757e-06 -2.59692e-22 0.000107319 -9.69924e-22 0.000105008)
(8.91714e-05 -9.44682e-06 -1.81484e-21 0.000101839 -1.06101e-20 0.000102932)
(9.23407e-05 -1.05781e-05 -1.51629e-21 9.77675e-05 7.97524e-21 0.000103493)
(9.52333e-05 -1.00468e-05 1.29231e-19 9.33031e-05 -6.63857e-21 0.000103182)
(0.000104346 -9.47655e-06 3.47599e-22 9.58621e-05 -1.00185e-23 0.000110096)
(6.26086e-05 -2.75276e-06 -4.71089e-21 5.80059e-05 2.6422e-22 6.39425e-05)
(0.00047401 -6.55372e-05 -1.02572e-21 0.000295471 -1.57614e-22 0.000501877)
(0.00325902 -0.000272192 -2.52161e-18 0.00168549 -9.40984e-20 0.00340766)
(0.00933461 0.000424049 1.7603e-17 0.0046792 7.81576e-19 0.00965361)
(0.0187825 0.00468232 -2.39283e-19 0.0112642 -1.32707e-20 0.0193694)
(0.0386015 0.0154354 -2.73062e-16 0.0316784 -1.27674e-17 0.0399537)
(0.0759783 0.0342742 -3.14207e-19 0.0747608 9.44002e-18 0.0792548)
(0.130179 0.0608368 -1.19262e-18 0.13968 8.15317e-18 0.137248)
(0.196699 0.09295 3.53892e-17 0.218843 -1.02992e-16 0.208526)
(0.267577 0.127576 -1.72746e-16 0.305658 7.10498e-16 0.286691)
(0.333481 0.154072 2.18619e-15 0.353591 8.14143e-16 0.34229)
(0.548246 0.261159 4.48558e-15 0.615182 1.75771e-15 0.593684)
(0.00128853 -9.7701e-05 -2.52605e-21 0.00106033 -4.72104e-21 0.0011691)
(0.00127316 -0.00011578 -5.50357e-21 0.00108093 -8.81858e-21 0.00117115)
(0.00124328 -0.000131404 1.05163e-20 0.0011001 1.59995e-20 0.00116416)
(0.00120673 -0.000141547 1.48046e-20 0.00111816 1.43986e-20 0.00115344)
(0.00115894 -0.000144746 1.67338e-21 0.00112691 -7.26603e-22 0.00113221)
(0.0011014 -0.000141118 -5.67977e-21 0.00112598 1.39644e-20 0.00110099)
(0.00103937 -0.000131399 1.07889e-19 0.00111481 1.081e-19 0.00106237)
(0.000972788 -0.000116714 -1.01062e-19 0.00108967 -1.34197e-19 0.00101449)
(0.000904808 -9.88117e-05 2.82698e-20 0.00105274 7.30852e-21 0.000959853)
(0.000836934 -7.97138e-05 1.33611e-19 0.00100429 9.89783e-20 0.000899712)
(0.00076995 -6.0884e-05 1.051e-19 0.000946117 1.06743e-19 0.000835258)
(0.000703914 -4.35108e-05 1.14003e-19 0.000879755 3.27584e-20 0.000767507)
(0.000638522 -2.83865e-05 -1.27129e-19 0.000806711 -9.64002e-20 0.00069723)
(0.000573931 -1.58324e-05 -7.97219e-20 0.000729276 -7.99752e-20 0.000625788)
(0.00050993 -5.80723e-06 8.77367e-21 0.00064882 -2.68012e-20 0.000553635)
(0.00044366 2.90207e-06 -1.95342e-19 0.000563392 1.37513e-20 0.00047897)
(0.000377813 1.02162e-05 -5.2818e-20 0.000475005 -6.69359e-20 0.00040446)
(0.000322285 1.58956e-05 -2.85873e-19 0.000397135 -2.22327e-19 0.000341395)
(0.000255155 1.60023e-05 2.18237e-20 0.000298771 -2.93688e-20 0.000265975)
(0.000141665 5.95573e-06 2.74382e-21 0.000152038 -6.25896e-21 0.000144413)
(1.66924e-05 7.87431e-08 -2.8473e-22 1.67892e-05 -3.37575e-24 1.67225e-05)
(0.000532774 7.34357e-05 3.30946e-20 0.000602344 7.31943e-21 0.000557935)
(0.00127926 0.000354065 -6.73189e-19 0.00153427 -1.37004e-19 0.00137811)
(0.00486522 0.00227917 -1.36581e-18 0.00596354 1.46615e-18 0.00526938)
(0.0151625 0.00705233 1.17267e-18 0.0167706 7.94648e-20 0.0155175)
(0.0299444 0.013205 1.07017e-17 0.0295029 5.70806e-18 0.0288127)
(0.00667887 0.00271899 -2.94533e-19 0.00577915 1.21695e-19 0.006006)
(0.00807027 0.0023546 1.04044e-18 0.0049275 6.59883e-20 0.00608069)
(0.032383 -0.011565 4.06433e-17 0.0234281 2.47554e-18 0.0270586)
(0.25121 -0.10815 -9.88611e-18 0.232551 1.20827e-16 0.240021)
(1.06069 -0.477445 -5.3157e-16 1.06354 -5.24549e-16 1.05882)
(2.81463 -1.29878 1.98847e-15 2.9709 -1.86507e-15 2.8887)
(5.15623 -2.4246 2.17769e-15 5.68434 -2.12341e-16 5.41897)
(7.00563 -3.34492 -3.84929e-16 8.03084 -7.24213e-15 7.52337)
(7.70849 -3.72327 -5.82418e-15 9.13388 -1.76369e-15 8.43013)
(7.50892 -3.651 6.99822e-16 9.09236 3.66428e-15 8.30444)
(7.00573 -3.42111 -9.96634e-15 8.60375 1.47834e-15 7.81177)
(6.25904 -3.01977 -6.98841e-15 7.41726 8.73428e-16 6.82263)
(6.54393 -3.2129 8.11032e-15 8.14514 -4.94768e-15 7.38704)
(0.00128956 -7.51089e-05 -1.36631e-21 0.00103297 -1.40113e-21 0.00115768)
(0.00127905 -5.12198e-05 4.87528e-21 0.00100506 2.23243e-20 0.00113894)
(0.00125243 -2.16746e-05 1.44767e-20 0.000970787 3.21511e-20 0.00111008)
(0.00121288 9.5237e-06 1.56058e-20 0.00093776 -7.62375e-21 0.00107457)
(0.00115582 3.99797e-05 -3.10055e-20 0.000903934 -2.66245e-20 0.00102994)
(0.00107629 6.60804e-05 -3.42155e-21 0.000865096 -3.80907e-20 0.000970851)
(0.000980837 8.44566e-05 -4.75837e-20 0.000822626 -4.88486e-20 0.000901586)
(0.000879016 9.33558e-05 -7.513e-20 0.000777364 -2.77201e-21 0.000828207)
(0.000775206 9.35059e-05 -2.16035e-20 0.000727851 -1.19314e-20 0.000751986)
(0.000668458 8.57815e-05 2.3382e-20 0.000668387 -1.63685e-20 0.000669072)
(0.000565387 7.27357e-05 2.31447e-20 0.000599857 5.31038e-20 0.000583185)
(0.000474467 5.81137e-05 4.35551e-20 0.000530024 -1.6895e-20 0.000502538)
(0.000398361 4.43973e-05 -3.72046e-20 0.000464236 -4.26667e-20 0.000431155)
(0.000335844 3.26791e-05 -7.02597e-21 0.000404542 1.5862e-20 0.000369558)
(0.000285196 2.3353e-05 3.3881e-20 0.000351994 -7.38552e-21 0.00031745)
(0.000244168 1.62563e-05 7.43413e-20 0.000306528 -5.30602e-21 0.000273747)
(0.000211306 1.10715e-05 -4.6637e-20 0.000268256 -1.33549e-20 0.000237767)
(0.000185061 7.3484e-06 -1.41567e-20 0.00023657 -2.06594e-20 0.000208461)
(0.000164285 4.64495e-06 -6.60171e-21 0.000210854 3.65925e-21 0.000184937)
(0.000147525 2.5638e-06 6.89395e-20 0.00018974 -2.72389e-20 0.000165811)
(0.000134023 8.48494e-07 1.24424e-20 0.000172462 -1.82254e-20 0.000150274)
(0.000122794 -7.18957e-07 -6.70327e-20 0.000157829 1.96773e-20 0.000137235)
(0.00011289 -2.26745e-06 -2.80278e-21 0.000144556 9.89345e-21 0.00012555)
(0.00010263 -3.70514e-06 -1.07745e-21 0.000130415 -6.61099e-21 0.000113287)
(9.22025e-05 -4.60641e-06 1.00384e-21 0.000115835 -8.22188e-23 0.000100628)
(8.36288e-05 -4.88959e-06 -5.12489e-20 0.000103765 -1.05242e-20 8.9964e-05)
(7.7222e-05 -4.83544e-06 -9.05544e-22 9.46596e-05 1.6103e-22 8.18248e-05)
(7.26558e-05 -4.67176e-06 1.10611e-20 8.81574e-05 2.93442e-22 7.58976e-05)
(6.69051e-05 -4.2876e-06 -3.91775e-22 8.02401e-05 -9.40257e-24 6.89629e-05)
(5.91223e-05 -3.8062e-06 2.52698e-22 7.01591e-05 3.58406e-22 6.02523e-05)
(4.49117e-05 -2.80479e-06 -2.78513e-20 5.2208e-05 -1.00231e-21 4.52867e-05)
(2.87073e-05 -1.6966e-06 -6.44696e-22 3.24875e-05 -4.00579e-23 2.86497e-05)
(0.000200393 -5.5002e-05 3.68183e-21 0.000303718 -6.73367e-20 0.000184366)
(0.000395296 -4.55579e-05 1.70501e-17 0.000505247 1.53742e-18 0.000287099)
(0.00166555 0.000597982 1.09249e-18 0.00129647 1.22159e-19 0.00132993)
(0.00854693 0.0033274 -1.87234e-16 0.00673032 -3.54262e-17 0.00772412)
(0.0268148 0.0111939 1.24888e-15 0.0232033 1.83346e-16 0.0257223)
(0.070618 0.0278923 4.81063e-17 0.0567005 -1.76437e-16 0.0643923)
(0.229824 0.104447 2.7299e-16 0.230705 -1.51759e-15 0.237429)
(0.000964196 -7.43965e-05 -3.03415e-21 0.000794155 -4.50978e-21 0.000880891)
(0.000948048 -8.78657e-05 -5.53839e-21 0.000806686 -7.48151e-21 0.000879848)
(0.000922334 -9.91055e-05 1.883e-20 0.0008185 2.41254e-20 0.000873168)
(0.000888697 -0.00010592 -8.03303e-20 0.000827178 -1.09896e-19 0.000861446)
(0.000847369 -0.000107504 1.99373e-20 0.00083014 3.12766e-20 0.000843051)
(0.000799183 -0.000103636 4.34856e-20 0.000826532 4.52096e-20 0.000817884)
(0.000747523 -9.45879e-05 -3.71145e-20 0.000815518 -6.08405e-20 0.000787538)
(0.000694339 -8.11879e-05 -2.50192e-20 0.000796223 4.32543e-21 0.000752355)
(0.000641652 -6.45652e-05 -1.49549e-19 0.000769017 -1.41455e-19 0.000713464)
(0.000592388 -4.63116e-05 -2.09354e-20 0.000735717 -5.65177e-20 0.000673383)
(0.000547822 -2.7725e-05 4.11463e-21 0.000697776 -1.32767e-20 0.000633332)
(0.000509156 -1.00026e-05 -7.5037e-20 0.000657275 -9.53144e-20 0.000594953)
(0.000477379 5.89213e-06 3.60052e-20 0.00061676 4.31916e-20 0.000559958)
(0.000452682 1.93883e-05 -1.47929e-19 0.000578295 -7.68959e-20 0.000529357)
(0.000434937 3.04269e-05 3.23075e-20 0.000543505 1.79958e-20 0.000503912)
(0.000422112 3.85818e-05 1.41531e-19 0.00051241 1.18412e-19 0.000482204)
(0.000408486 4.36715e-05 -1.94831e-19 0.000480843 -5.54139e-20 0.000459032)
(0.00038901 4.57299e-05 -3.57672e-20 0.000443585 1.60775e-19 0.000429474)
(0.000369401 4.68228e-05 -1.23951e-20 0.000408758 -2.10133e-20 0.000401022)
(0.000339274 4.43055e-05 -1.47942e-19 0.000364004 -2.3955e-20 0.000361568)
(0.000227486 2.19057e-05 8.05459e-20 0.000235006 4.94165e-20 0.000235357)
(4.00341e-05 6.99831e-07 8.35439e-23 4.01826e-05 -1.20713e-22 4.02081e-05)
(1.10782e-05 4.95019e-08 1.26431e-22 1.10845e-05 3.52235e-23 1.10863e-05)
(2.46791e-06 2.16441e-09 3.56747e-24 2.46795e-06 1.19007e-24 2.46808e-06)
(0 0 -0 0 -0 0)
(0 0 0 0 -0 0)
(0.00218645 0.000791906 1.25458e-19 0.00194878 -3.47193e-20 0.00208388)
(0.00642168 0.00263605 -1.9662e-19 0.00554195 -2.96982e-19 0.00600752)
(0.0194427 0.00794087 -8.49071e-18 0.0164634 -4.24249e-19 0.0179724)
(0.00939911 0.00374436 4.3765e-19 0.00770317 2.48863e-20 0.00853962)
(0.0219084 0.00827652 -2.53556e-18 0.0167009 9.74851e-19 0.0192385)
(0.0456545 0.0119272 -2.21611e-16 0.0248811 -1.5693e-16 0.0349279)
(0.241267 -0.0984615 -8.16304e-17 0.20469 -2.52542e-16 0.221732)
(1.27465 -0.584538 -5.45421e-15 1.32803 5.37345e-16 1.29835)
(3.15521 -1.49067 7.64783e-16 3.52166 2.51081e-15 3.33571)
(5.00643 -2.39998 -8.62586e-19 5.80889 1.3289e-19 5.40659)
(6.1285 -2.96457 -3.40528e-16 7.2968 4.54473e-15 6.7186)
(6.43378 -3.08633 1.42253e-16 7.4955 1.90152e-16 6.94869)
(6.97279 -3.40265 -1.3258e-14 8.48208 2.74735e-15 7.78367)
(0.000973478 -5.80007e-05 5.3542e-21 0.000780264 3.43731e-21 0.000878668)
(0.00097525 -4.04209e-05 -1.5077e-20 0.000766601 -2.43017e-20 0.000871934)
(0.000967276 -1.88395e-05 -8.33373e-21 0.000749915 1.41443e-20 0.000859517)
(0.000946619 4.46254e-06 4.02329e-20 0.000731297 2.95457e-20 0.000839427)
(0.000911526 2.77219e-05 -1.50162e-20 0.000710681 -7.74428e-20 0.000811432)
(0.000858174 4.83607e-05 -2.6869e-20 0.000685191 1.82304e-20 0.000771688)
(0.000792001 6.39221e-05 6.78001e-20 0.000656891 5.27801e-20 0.000724261)
(0.000720113 7.29084e-05 -2.25384e-20 0.000627128 -6.1591e-20 0.000673553)
(0.00064476 7.53654e-05 -5.42717e-20 0.000594071 -2.45334e-20 0.000619518)
(0.000566075 7.16202e-05 -4.03765e-20 0.00055382 1.57774e-20 0.000560141)
(0.000489219 6.33224e-05 4.46288e-20 0.000507024 1.696e-21 0.000498294)
(0.000418544 5.28399e-05 -2.5525e-20 0.000456699 -2.60727e-20 0.00043778)
(0.00035589 4.20697e-05 -3.26581e-20 0.000405689 2.60637e-20 0.000380977)
(0.000301277 3.21418e-05 3.16219e-20 0.000355946 1.36047e-20 0.000328877)
(0.000254415 2.36699e-05 -4.63636e-20 0.000309165 7.73527e-21 0.000282173)
(0.00021468 1.68092e-05 -1.24438e-20 0.000266563 -3.42176e-20 0.000241165)
(0.000181473 1.1478e-05 1.38257e-20 0.000228958 1.77003e-20 0.000205934)
(0.000154128 7.42309e-06 -5.06706e-20 0.00019671 2.37562e-21 0.000176318)
(0.000131988 4.34776e-06 2.01275e-20 0.000169796 -3.6118e-22 0.00015196)
(0.00011418 1.94919e-06 -7.67163e-20 0.0001476 5.24364e-21 0.000132115)
(0.000100001 -8.49616e-09 -1.05714e-20 0.000129481 2.88299e-21 0.000116095)
(8.86504e-05 -1.71724e-06 6.15035e-20 0.000114495 5.68648e-21 0.000103036)
(7.9336e-05 -3.28672e-06 5.89618e-20 0.000101569 -1.3495e-20 9.20018e-05)
(7.07572e-05 -4.65774e-06 -4.91572e-20 8.89137e-05 3.64393e-21 8.14998e-05)
(6.22258e-05 -5.53071e-06 -6.85983e-22 7.58562e-05 4.09814e-22 7.08387e-05)
(5.44201e-05 -5.8077e-06 -4.70988e-20 6.3735e-05 1.43654e-20 6.09834e-05)
(4.83911e-05 -5.71923e-06 -9.2967e-22 5.38814e-05 1.00816e-23 5.32191e-05)
(4.45555e-05 -5.39397e-06 -7.50004e-24 4.66693e-05 -3.92506e-22 4.79327e-05)
(4.35209e-05 -5.062e-06 -5.47287e-23 4.2717e-05 1.10662e-23 4.57556e-05)
(4.12509e-05 -4.09783e-06 1.61608e-20 3.83521e-05 1.33733e-22 4.23689e-05)
(5.17147e-05 -5.49367e-06 7.67735e-23 4.50146e-05 -1.71714e-22 5.23139e-05)
(1.1911e-05 -3.20772e-07 2.35612e-24 1.13966e-05 -8.27323e-26 1.1893e-05)
(8.49574e-05 -1.23997e-05 -4.41337e-19 6.2129e-05 -3.30861e-20 8.2161e-05)
(0.000443538 -0.00010486 -3.88532e-18 0.000235871 -3.31825e-19 0.000400704)
(0.000121679 -2.31502e-05 8.4452e-21 7.23336e-05 8.5003e-22 0.000107314)
(0.000433042 -8.64161e-05 -7.99565e-18 0.000203499 -1.27549e-19 0.000343959)
(0.00125484 -0.000129802 2.79739e-18 0.00050027 -2.08518e-17 0.000921417)
(0.00302697 0.000210986 1.45262e-18 0.00118865 2.86788e-19 0.00207546)
(0.0489674 0.0196934 -5.08009e-16 0.0399273 7.05663e-17 0.0465051)
(0.000790899 -6.10389e-05 5.9728e-21 0.000651721 7.00582e-21 0.000720678)
(0.000783263 -7.19195e-05 -4.50737e-21 0.000665467 -5.06969e-21 0.000723792)
(0.000768851 -8.14823e-05 1.87889e-23 0.000679521 -3.74827e-22 0.000723274)
(0.000750142 -8.80986e-05 -2.57281e-21 0.000693171 2.41157e-21 0.000720581)
(0.000725977 -9.09743e-05 5.75911e-20 0.000703308 6.08114e-20 0.000713352)
(0.000696872 -8.99707e-05 -3.64374e-20 0.000709717 -4.68136e-20 0.000701602)
(0.000664852 -8.51204e-05 -2.75325e-21 0.000711222 1.20663e-20 0.00068598)
(0.000630424 -7.68333e-05 1.24537e-19 0.000706174 1.19911e-19 0.000665802)
(0.00059465 -6.58159e-05 -2.93983e-20 0.000694372 2.12709e-21 0.000641447)
(0.000558776 -5.31298e-05 -1.40997e-19 0.000675793 -9.42827e-20 0.00061363)
(0.000523174 -3.97214e-05 4.37627e-20 0.000650579 3.66963e-20 0.00058255)
(0.000488373 -2.64974e-05 -1.16546e-19 0.000619637 -3.68761e-20 0.000548939)
(0.000454743 -1.42769e-05 -4.28155e-20 0.000584136 -1.59775e-20 0.000513605)
(0.000422339 -3.55626e-06 -7.32533e-20 0.000545265 4.10273e-20 0.00047716)
(0.000391165 5.36884e-06 6.36161e-21 0.000504256 3.52741e-21 0.000440275)
(0.000359898 1.22824e-05 5.33488e-20 0.000460628 1.19799e-20 0.000402105)
(0.000326242 1.7616e-05 7.3638e-20 0.000412353 1.08577e-19 0.000360985)
(0.000291815 2.13236e-05 2.74999e-19 0.000362061 7.60445e-20 0.000318987)
(0.000260024 2.37026e-05 -1.09777e-19 0.000314764 -5.26892e-21 0.000280192)
(0.000232665 2.5009e-05 1.0123e-19 0.000273201 4.46252e-20 0.000246732)
(0.0002093 2.52183e-05 1.50069e-20 0.000236762 -4.37823e-20 0.000218057)
(0.000182144 2.2246e-05 -1.39286e-20 0.000196497 2.53452e-20 0.000186014)
(0.00012624 1.1481e-05 -4.27219e-20 0.00012898 -2.44246e-20 0.000126465)
(3.18731e-05 7.35481e-07 9.41809e-23 3.17737e-05 -1.11406e-22 3.17812e-05)
(7.28683e-06 3.6897e-08 9.19711e-24 7.27031e-06 -1.90132e-24 7.27731e-06)
(3.54257e-06 8.49031e-09 1.1639e-23 3.53691e-06 -3.61462e-24 3.53949e-06)
(8.39894e-07 4.71357e-10 -2.24389e-25 8.39536e-07 -8.01666e-26 8.39701e-07)
(0 0 -0 0 -0 0)
(0 0 0 0 0 0)
(0.00134029 0.000440719 -1.27818e-19 0.00105629 -5.1767e-19 0.00119435)
(0.00522032 0.00196679 -5.23888e-18 0.00399461 2.16481e-18 0.00459068)
(0.0278531 0.0104865 -3.61741e-17 0.0211406 3.78778e-17 0.0244147)