/*--------------------------------*- C++ -*----------------------------------*\
| =========                 |                                                 |
| \\      /  F ield         | OpenFOAM: The Open Source CFD Toolbox           |
|  \\    /   O peration     | Version:  2312                                  |
|   \\  /    A nd           | Website:  www.openfoam.com                      |
|    \\/     M anipulation  |                                                 |
\*---------------------------------------------------------------------------*/
FoamFile
{
    version     2.0;
    format      ascii;
    arch        "LSB;label=32;scalar=64";
    class       volScalarField;
    location    "350";
    object      turbulenceProperties:k;
}
// * * * * * * * * * * * * * * * * * * * * * * * * * * * * * * * * * * * * * //

dimensions      [0 2 -2 0 0 0 0];

internalField   nonuniform List<scalar> 
10720
(
0.0199791
0.0232544
0.0274192
0.0330515
0.0396746
0.0480554
0.0587112
0.0718537
0.0885088
0.109761
0.137262
0.173647
0.222551
0.289921
0.385894
0.526387
0.742803
1.0763
1.6619
2.57335
4.62806
7.73363
18.1084
35.3425
39.1624
37.4663
36.8158
37.4883
38.3228
38.5346
38.0247
36.8903
35.0565
32.5471
29.3065
25.4109
20.1239
14.8726
3.46639
0.0170395
0.014649
0.0119557
0.00963904
0.00744402
0.00545941
0.00385238
0.00288502
0.00301485
0.00406963
0.00603099
0.00903263
0.0133972
0.0196362
0.0284178
0.0408157
0.0586604
0.0853414
0.127065
0.195052
0.311616
0.517828
0.911219
1.66849
3.31945
6.78832
15.1725
31.2647
44.3045
49.9004
51.4877
51.7475
51.4494
50.7216
49.6013
48.1499
46.0268
43.5542
35.6736
0.00310765
0.00309047
0.00305514
0.00296701
0.00283061
0.00267376
0.00248863
0.0022804
0.00207428
0.00187212
0.00167937
0.00154526
0.00152595
0.00167384
0.00216419
0.00336975
0.00632535
0.0130755
0.0314004
0.0768349
0.226675
0.625168
1.91484
6.16004
12.0864
18.2007
23.9438
28.0039
28.8068
26.4269
22.5199
18.5664
15.3605
12.9036
11.0161
9.51888
8.47243
7.38136
7.92704
0.00307938
0.00303755
0.00295216
0.00282559
0.00265257
0.00242446
0.00215686
0.00189736
0.00165749
0.00141949
0.00119301
0.000996953
0.000831313
0.000690812
0.000571736
0.000471401
0.000386283
0.000314252
0.000251125
0.000193458
0.000136417
8.06523e-05
2.79572e-05
4.56002e-06
1.16175e-05
0.00159561
0.00854023
0.0688248
0.231437
0.451758
0.67341
0.867749
1.03112
1.17488
1.30941
1.448
1.59462
1.92185
2.67264
0.00208398
0.00206752
0.0020209
0.00194963
0.0018751
0.00179319
0.0017104
0.00163595
0.00157191
0.00152225
0.00148383
0.00146176
0.00145581
0.00146847
0.00147184
0.00143127
0.00123291
0.00108867
0.000259628
0.00640352
0.0129716
0.00635768
0.00155725
0.0299389
0.20111
0.656398
1.64637
3.70565
7.33623
12.1195
16.4391
18.56
18.1426
16.2896
14.1329
12.1079
10.5213
8.71026
9.78739
0.00210021
0.00209764
0.00209207
0.00205483
0.00198876
0.00187782
0.00172485
0.00155018
0.00138785
0.00122086
0.00104118
0.000867186
0.000711471
0.000577386
0.000466687
0.000377311
0.00030766
0.000254835
0.000216414
0.000188817
0.000169803
0.000157464
0.000150686
0.000146971
0.000146801
0.000145859
0.000155152
9.22785e-05
0.000635679
0.00417609
0.0118337
0.0247081
0.0551168
0.114997
0.203553
0.312034
0.429963
0.514681
0.878556
0.00175898
0.00176262
0.00175376
0.00173917
0.00170903
0.00166419
0.00160828
0.00153848
0.0014587
0.00137047
0.00127566
0.00117559
0.00107123
0.000964498
0.000856192
0.000743011
0.000628639
0.000530407
0.00040995
0.000219058
2.5102e-05
0.000846526
0.00209582
0.00804907
0.0237253
0.04413
0.00923201
0.00953923
0.0414348
0.361891
1.59153
4.33711
8.12977
11.2799
12.6363
12.4529
11.7106
10.2495
11.0381
0.00174011
0.00171152
0.00166665
0.00161261
0.00154485
0.00145612
0.00135252
0.00124229
0.00112752
0.00100296
0.000874214
0.000753514
0.000646876
0.000554972
0.00047732
0.000412222
0.000358665
0.000315046
0.000280038
0.000251538
0.00022838
0.000208929
0.000191498
0.000173167
0.000154333
0.000138679
0.000126853
0.000118355
0.000108054
9.47669e-05
7.12032e-05
4.49222e-05
0.000344239
0.000593821
0.00214597
0.0115007
0.0378702
0.0958554
0.348979
0.00131962
0.00131729
0.001307
0.00128866
0.00126028
0.0012218
0.00117529
0.00112146
0.00106207
0.00100074
0.000939465
0.000880692
0.000827049
0.000780167
0.000741177
0.000708363
0.00067418
0.000631034
0.00058959
0.000532424
0.000348924
6.02124e-05
1.66245e-05
3.70197e-06
0
0
0.00310955
0.00898558
0.0269392
0.0128209
0.0289239
0.0527317
0.333844
1.95051
5.00629
8.11095
10.0719
10.439
11.6193
0.0013162
0.00130689
0.00128835
0.00125867
0.00121682
0.00115753
0.00108658
0.0010104
0.000929174
0.000840018
0.000747269
0.000656512
0.000571278
0.00049305
0.000422876
0.000361204
0.000308182
0.000263578
0.000226872
0.000196947
0.000172789
0.00015309
0.000136453
0.000120585
0.00010446
8.95692e-05
7.77458e-05
6.95787e-05
6.59967e-05
6.0986e-05
7.45216e-05
1.76003e-05
0.000114624
0.000540056
0.000150663
0.00049025
0.00133827
0.00314554
0.0676999
0.00108165
0.00108626
0.00108582
0.00108195
0.00107132
0.0010541
0.00103103
0.0010012
0.000965235
0.000924099
0.000878152
0.000828474
0.000776242
0.000722382
0.000667848
0.000611315
0.00054979
0.000486432
0.00042749
0.000376299
0.000332059
0.000282327
0.000190842
4.7714e-05
1.09172e-05
5.30949e-06
1.25957e-06
0
0
0.00179546
0.00690281
0.0367042
0.00661136
0.0903123
0.198315
1.85633
5.17971
8.34723
11.0878
0.00107185
0.0010583
0.0010386
0.0010126
0.000979225
0.000935358
0.000884871
0.0008307
0.000771797
0.000706681
0.000638485
0.000570609
0.000505654
0.000445135
0.000390103
0.000341246
0.000298776
0.000262574
0.000232217
0.000206926
0.000185815
0.000167764
0.000151532
0.000135381
0.00011861
0.000102643
8.87152e-05
7.70597e-05
6.72849e-05
5.91574e-05
5.21827e-05
4.58221e-05
3.6482e-05
2.58918e-05
1.44526e-05
6.41856e-05
0.000229646
0.000719971
0.00770837
0.000874984
0.000878827
0.00087944
0.000877216
0.000870228
0.000858129
0.000841208
0.000818967
0.000791601
0.000759866
0.000724305
0.000685808
0.000645562
0.000604711
0.000564211
0.000525412
0.000490244
0.000457493
0.000424013
0.000389327
0.00035625
0.000324431
0.000297027
0.000253095
0.000177366
9.37612e-05
1.89299e-05
5.75549e-06
3.34352e-06
3.98548e-07
0
0
0.000853257
0.0285309
0.0216464
0.127528
0.851213
4.25769
8.8966
0.000867801
0.00085807
0.000843917
0.000824427
0.000799144
0.000766701
0.000730244
0.000690506
0.000646744
0.000598758
0.000548321
0.000497337
0.000447354
0.000399436
0.000354479
0.0003132
0.000275998
0.000243111
0.000214542
0.000189952
0.000168868
0.000150587
0.000134204
0.000118461
0.000102697
8.77605e-05
7.46305e-05
6.35797e-05
5.43803e-05
4.69121e-05
4.13282e-05
3.77125e-05
3.56601e-05
3.28454e-05
2.36884e-05
7.12646e-06
1.25994e-06
6.7209e-08
0.000232937
0.00072521
0.000730161
0.000733101
0.000734286
0.000732275
0.000726783
0.000718028
0.000705367
0.000688798
0.000668672
0.000644961
0.000618124
0.000588691
0.000557141
0.000524038
0.000490057
0.000454773
0.000417281
0.000379286
0.00034335
0.000311711
0.000285831
0.00026625
0.000251698
0.000230785
0.000196002
0.000150795
9.98832e-05
6.08917e-05
6.28647e-06
3.23594e-06
1.44671e-07
0
0
0.00312725
0.0539527
0.0989893
0.96862
5.33125
0.000717772
0.000708808
0.000696792
0.000680843
0.000660858
0.000636093
0.000609038
0.000579215
0.000546192
0.000510367
0.000472545
0.000433911
0.00039542
0.000357792
0.000321762
0.000288028
0.000257015
0.000229095
0.000204408
0.00018281
0.000163954
0.000147311
0.000132157
0.000117541
0.000102967
8.90606e-05
7.65855e-05
6.57553e-05
5.63432e-05
4.81396e-05
4.10863e-05
3.50481e-05
2.98783e-05
2.54317e-05
2.2214e-05
1.85568e-05
1.36055e-05
1.5859e-06
1.66234e-05
0.000604951
0.000609718
0.000613192
0.000615361
0.000615282
0.000612642
0.000607503
0.000599296
0.00058795
0.000573569
0.000556108
0.000535812
0.000513041
0.00048816
0.00046171
0.000434115
0.000406005
0.000378476
0.000351619
0.000325406
0.000300296
0.000277478
0.00025718
0.000238724
0.000220187
0.000198599
0.000175049
0.000151989
0.00012971
9.50969e-05
6.31695e-05
2.90587e-06
1.65443e-06
0
0
0
0.0311202
0.132167
2.12151
0.000598417
0.000590852
0.000581078
0.000568097
0.000552269
0.00053316
0.000512562
0.000489747
0.00046452
0.000437399
0.000408765
0.000379295
0.000349558
0.000319999
0.000291127
0.000263471
0.000237447
0.000213397
0.000191539
0.000171905
0.000154345
0.000138524
0.000123937
0.000109946
9.62017e-05
8.31056e-05
7.12878e-05
6.09872e-05
5.20709e-05
4.43861e-05
3.78988e-05
3.26519e-05
2.86519e-05
2.58658e-05
2.42608e-05
2.45002e-05
2.62693e-05
2.80175e-05
1.05902e-06
0.000509991
0.000514664
0.000518562
0.000521577
0.00052298
0.000522617
0.000520438
0.00051596
0.000509109
0.000499879
0.000488122
0.00047395
0.000457533
0.000439053
0.000418802
0.000397072
0.000374316
0.000350494
0.000325771
0.000301207
0.000278089
0.000257442
0.000239376
0.000222173
0.000203571
0.00018268
0.000161554
0.000143424
0.000129386
0.000117881
0.000106677
7.7659e-05
3.283e-05
2.87401e-06
0
0
4.51677e-06
0.00245057
0.553583
0.000504008
0.000497417
0.000489203
0.000478412
0.000465652
0.000450738
0.00043469
0.000416925
0.000397466
0.000376686
0.000354779
0.000332146
0.000309084
0.000285827
0.000262753
0.000240249
0.000218632
0.000198252
0.000179326
0.000161968
0.000146141
0.000131642
0.000118127
0.000105171
9.25101e-05
8.0435e-05
6.94417e-05
5.97429e-05
5.12425e-05
4.38013e-05
3.73663e-05
3.19101e-05
2.73565e-05
2.37783e-05
2.11625e-05
2.06273e-05
2.03113e-05
3.41437e-05
1.42765e-05
0.000432996
0.000437371
0.000441294
0.000444606
0.000446729
0.000447605
0.000447085
0.000444836
0.000440711
0.000434681
0.000426563
0.000416386
0.000404209
0.00039011
0.000374298
0.000357008
0.0003385
0.000319193
0.000299526
0.000279888
0.000260904
0.000243084
0.000226648
0.000210665
0.000193266
0.000173584
0.000153075
0.00013466
0.000120007
0.000109475
0.000101719
9.70364e-05
8.49768e-05
4.94774e-05
3.28206e-06
0
0
0.00292923
0.142835
0.000427637
0.000421931
0.000415039
0.000406006
0.000395599
0.00038382
0.000371095
0.00035706
0.000341894
0.000325819
0.000308891
0.000291368
0.000273408
0.000255116
0.0002367
0.000218433
0.00020055
0.000183322
0.000166981
0.000151661
0.000137385
0.000124064
0.00011149
9.93934e-05
8.76205e-05
7.63917e-05
6.60898e-05
5.69205e-05
4.88428e-05
4.17651e-05
3.5659e-05
3.05335e-05
2.6386e-05
2.3275e-05
2.11479e-05
2.08818e-05
2.07856e-05
2.94847e-05
3.68328e-05
0.00037011
0.000374186
0.000378015
0.000381423
0.000383983
0.000385648
0.000386292
0.000385608
0.000383486
0.000379867
0.000374568
0.000367572
0.000358871
0.000348485
0.000336515
0.000323099
0.000308439
0.000292836
0.000276402
0.000259499
0.000242872
0.000227088
0.000212291
0.000197837
0.000182329
0.000164926
0.00014652
0.00012929
0.000114777
0.000103188
9.38029e-05
8.77092e-05
8.47602e-05
8.15883e-05
5.34098e-05
2.63165e-06
0
0.00081585
0.0494523
0.000365315
0.000360316
0.000354478
0.000346869
0.00033829
0.000328844
0.000318618
0.000307403
0.000295462
0.000282883
0.000269696
0.000256046
0.000241998
0.000227557
0.000212865
0.000198083
0.000183354
0.000168897
0.000154892
0.000141499
0.000128788
0.000116734
0.000105209
9.40581e-05
8.32277e-05
7.28823e-05
6.33242e-05
5.47382e-05
4.71165e-05
4.03943e-05
3.45438e-05
2.95705e-05
2.54503e-05
2.22406e-05
1.99628e-05
1.93705e-05
1.95845e-05
2.51715e-05
4.02167e-05
0.000318127
0.00032188
0.00032552
0.000328874
0.000331605
0.000333691
0.000335035
0.000335356
0.000334556
0.000332574
0.000329235
0.000324501
0.000318325
0.000310673
0.000301603
0.000291197
0.000279571
0.000266984
0.000253629
0.00023976
0.000225831
0.000212259
0.000199137
0.000186056
0.000172092
0.000156627
0.000140283
0.000124708
0.000111206
9.99036e-05
9.02811e-05
8.22793e-05
7.6692e-05
7.45535e-05
7.84145e-05
4.02198e-05
6.21409e-08
0.00026435
0.0164051
0.00031386
0.000309469
0.00030448
0.000298046
0.000290917
0.000283234
0.000274921
0.000265869
0.000256371
0.000246448
0.000236089
0.000225373
0.000214322
0.000202909
0.000191172
0.000179213
0.000167121
0.000155048
0.00014313
0.000131502
0.000120253
0.000109397
9.88836e-05
8.86495e-05
7.86945e-05
6.91651e-05
6.02971e-05
5.22596e-05
4.50732e-05
3.87013e-05
3.31314e-05
2.83832e-05
2.44567e-05
2.14099e-05
1.92656e-05
1.86327e-05
1.88972e-05
2.31759e-05
3.69541e-05
0.000274806
0.000278232
0.000281644
0.000284865
0.00028763
0.000289949
0.000291711
0.000292684
0.000292796
0.00029197
0.000290063
0.00028701
0.000282767
0.000277281
0.000270556
0.000262627
0.000253555
0.000243541
0.000232711
0.000221215
0.000209394
0.000197664
0.000186107
0.000174434
0.000161987
0.000148304
0.000133839
0.000119875
0.000107538
9.70133e-05
8.79385e-05
8.0027e-05
7.3382e-05
6.84583e-05
6.73452e-05
8.0219e-05
1.09058e-07
2.82322e-05
0.00415953
0.000270992
0.000267138
0.00026283
0.000257365
0.000251403
0.000245068
0.000238229
0.000230879
0.00022325
0.000215346
0.000207139
0.00019868
0.000189949
0.000180886
0.000171508
0.000161846
0.000151937
0.000141888
0.000131801
0.000121777
0.000111893
0.000102198
9.26878e-05
8.33679e-05
7.42759e-05
6.55385e-05
5.7354e-05
4.98706e-05
4.31271e-05
3.71105e-05
3.18181e-05
2.7274e-05
2.34781e-05
2.04875e-05
1.83352e-05
1.75954e-05
1.77522e-05
2.14573e-05
3.32413e-05
0.000238408
0.000241514
0.000244685
0.000247718
0.000250425
0.000252833
0.000254812
0.000256187
0.000256899
0.000256866
0.000255972
0.000254155
0.000251347
0.000247492
0.000242561
0.000236571
0.000229558
0.00022163
0.00021293
0.000203557
0.000193692
0.000183696
0.00017364
0.000163322
0.000152293
0.000140219
0.000127426
0.000114917
0.000103658
9.39123e-05
8.54466e-05
7.809e-05
7.16392e-05
6.67947e-05
6.01365e-05
7.52123e-05
3.81332e-05
4.21039e-07
0.000308114
0.000234992
0.000231601
0.000227864
0.000223191
0.000218174
0.00021289
0.000207217
0.000201198
0.000195022
0.000188674
0.000182126
0.000175395
0.000168456
0.000161238
0.000153723
0.000145917
0.000137818
0.000129481
0.000120972
0.00011237
0.000103749
9.51618e-05
8.66265e-05
7.81748e-05
6.98904e-05
6.19031e-05
5.43715e-05
4.74246e-05
4.11147e-05
3.54476e-05
3.04317e-05
2.60982e-05
2.24567e-05
1.95675e-05
1.74626e-05
1.66625e-05
1.67215e-05
1.98516e-05
2.99828e-05
0.00020761
0.000210425
0.000213346
0.00021617
0.000218773
0.000221171
0.000223249
0.000224861
0.000225961
0.000226474
0.000226295
0.000225365
0.000223626
0.000221009
0.000217494
0.000213058
0.000207713
0.000201512
0.000194591
0.000186985
0.000178792
0.00017031
0.000161621
0.000152592
0.000142899
0.000132301
0.000121038
0.000109887
9.96564e-05
9.06555e-05
8.27552e-05
7.58852e-05
6.98363e-05
6.53596e-05
5.95089e-05
6.02646e-05
7.12063e-05
1.43758e-07
2.26964e-05
0.000204558
0.000201554
0.000198302
0.000194285
0.000190041
0.000185588
0.000180841
0.000175874
0.000170831
0.000165692
0.000160425
0.000155043
0.000149501
0.000143725
0.000137691
0.000131369
0.000124749
0.000117847
0.0001107
0.00010336
9.58815e-05
8.83179e-05
8.07021e-05
7.30958e-05
6.55934e-05
5.83217e-05
5.14153e-05
4.4991e-05
3.91083e-05
3.37878e-05
2.90466e-05
2.49209e-05
2.1425e-05
1.86193e-05
1.65387e-05
1.56619e-05
1.56309e-05
1.82545e-05
2.70293e-05
0.000181389
0.000183941
0.00018661
0.000189227
0.000191691
0.000194019
0.000196112
0.000197847
0.000199175
0.000200043
0.000200356
0.000200063
0.000199117
0.000197447
0.000195017
0.000191796
0.000187779
0.000182987
0.000177526
0.000171414
0.000164689
0.000157563
0.000150129
0.000142302
0.000133851
0.000124597
0.000114724
0.000104829
9.55846e-05
8.73112e-05
7.9965e-05
7.35123e-05
6.78767e-05
6.33211e-05
5.97728e-05
5.27322e-05
7.89117e-05
3.45655e-07
3.25446e-10
0.00017867
0.000176005
0.000173152
0.000169686
0.000166073
0.00016229
0.000158287
0.000154161
0.000150012
0.000145818
0.000141554
0.000137214
0.000132758
0.000128118
0.000123255
0.000118134
0.00011272
0.000107017
0.000101031
9.47938e-05
8.83436e-05
8.17196e-05
7.49634e-05
6.81496e-05
6.13859e-05
5.47868e-05
4.8476e-05
4.25561e-05
3.70895e-05
3.2109e-05
2.76391e-05
2.37196e-05
2.03712e-05
1.76553e-05
1.56082e-05
1.46654e-05
1.4552e-05
1.67267e-05
2.42925e-05
0.000158948
0.000161256
0.000163685
0.000166102
0.000168403
0.000170631
0.00017268
0.000174454
0.000175911
0.000177006
0.000177656
0.000177823
0.00017745
0.00017648
0.000174877
0.000172606
0.00016965
0.000166003
0.000161742
0.000156876
0.000151411
0.000145469
0.000139164
0.000132444
0.000125134
0.000117104
0.000108492
9.97585e-05
9.14556e-05
8.38964e-05
7.71056e-05
7.10601e-05
6.58096e-05
6.12227e-05
5.86045e-05
5.1298e-05
6.70026e-05
2.53745e-05
5.24137e-07
0.000156522
0.000154155
0.000151643
0.000148636
0.000145546
0.000142305
0.00013891
0.000135456
0.000132016
0.000128566
0.000125087
0.000121567
0.000117965
0.000114216
0.000110283
0.000106121
0.000101691
9.6979e-05
9.19765e-05
8.66923e-05
8.11531e-05
7.5391e-05
6.94391e-05
6.33649e-05
5.72821e-05
5.13171e-05
4.55728e-05
4.01378e-05
3.50759e-05
3.04277e-05
2.62246e-05
2.2508e-05
1.93049e-05
1.66758e-05
1.46587e-05
1.3652e-05
1.34625e-05
1.52634e-05
2.17546e-05
0.000139649
0.000141727
0.000143942
0.000146154
0.000148297
0.0001504
0.000152376
0.00015413
0.000155645
0.00015687
0.000157738
0.000158212
0.000158252
0.000157801
0.000156831
0.000155296
0.000153176
0.000150458
0.000147174
0.000143344
0.000138947
0.000134039
0.000128743
0.000123029
0.000116758
0.000109833
0.000102358
9.46912e-05
8.72797e-05
8.04167e-05
7.41749e-05
6.85511e-05
6.36361e-05
5.92609e-05
5.645e-05
5.16497e-05
5.48555e-05
5.14797e-05
6.30805e-06
0.000137481
0.000135374
0.000133154
0.000130539
0.000127875
0.000125086
0.000122186
0.000119277
0.000116402
0.000113546
0.000110687
0.000107811
0.000104881
0.000101835
9.86376e-05
9.52467e-05
9.16158e-05
8.7721e-05
8.35454e-05
7.90859e-05
7.43466e-05
6.93484e-05
6.41217e-05
5.87381e-05
5.3304e-05
4.7933e-05
4.27202e-05
3.77459e-05
3.30729e-05
2.8747e-05
2.48041e-05
2.12867e-05
1.82275e-05
1.56851e-05
1.36995e-05
1.26359e-05
1.23765e-05
1.38644e-05
1.94088e-05
0.000122978
0.00012485
0.000126862
0.000128885
0.000130866
0.000132836
0.00013471
0.000136417
0.000137934
0.000139221
0.000140222
0.000140907
0.00014124
0.000141176
0.000140677
0.00013971
0.000138245
0.000136264
0.000133769
0.000130791
0.000127296
0.000123289
0.000118881
0.000114064
0.000108729
0.000102796
9.63465e-05
8.96529e-05
8.30771e-05
7.68852e-05
7.11782e-05
6.59831e-05
6.13733e-05
5.73245e-05
5.41401e-05
5.13061e-05
4.8448e-05
5.53509e-05
2.61244e-05
0.000121039
0.000119159
0.000117194
0.000114914
0.000112598
0.000110187
0.000107699
0.000105229
0.000102811
0.000100428
9.80612e-05
9.56957e-05
9.32947e-05
9.08085e-05
8.81982e-05
8.54234e-05
8.2441e-05
7.9221e-05
7.57361e-05
7.19747e-05
6.79349e-05
6.36222e-05
5.90554e-05
5.43013e-05
4.94624e-05
4.46416e-05
3.99268e-05
3.53896e-05
3.10902e-05
2.70761e-05
2.33865e-05
2.00642e-05
1.71465e-05
1.46892e-05
1.27351e-05
1.16198e-05
1.12965e-05
1.25326e-05
1.72595e-05
0.00010852
0.000110208
0.000112032
0.000113878
0.000115701
0.000117535
0.000119296
0.000120929
0.000122416
0.000123718
0.000124791
0.000125611
0.000126144
0.000126351
0.000126203
0.000125666
0.000124708
0.000123309
0.000121458
0.000119187
0.000116445
0.000113211
0.00010958
0.000105559
0.000101058
9.60103e-05
9.04768e-05
8.46661e-05
7.88679e-05
7.33175e-05
6.8129e-05
6.33569e-05
5.90484e-05
5.53048e-05
5.19909e-05
4.98781e-05
4.59125e-05
4.98366e-05
4.05026e-05
0.000106786
0.000105106
0.000103364
0.00010137
9.93449e-05
9.72493e-05
9.51045e-05
9.29958e-05
9.09482e-05
8.89465e-05
8.69705e-05
8.50084e-05
8.30298e-05
8.09867e-05
7.88455e-05
7.6566e-05
7.41074e-05
7.14407e-05
6.85346e-05
6.53678e-05
6.19274e-05
5.82164e-05
5.42453e-05
5.00655e-05
4.57679e-05
4.14548e-05
3.72054e-05
3.3081e-05
2.91374e-05
2.54227e-05
2.1978e-05
1.88455e-05
1.60663e-05
1.36925e-05
1.17707e-05
1.06101e-05
1.02291e-05
1.1264e-05
1.52928e-05
9.59392e-05
9.74598e-05
9.91137e-05
0.000100792
0.000102468
0.000104163
0.000105808
0.000107355
0.000108786
0.000110072
0.000111171
0.000112066
0.000112731
0.000113129
0.000113239
0.000113024
0.000112459
0.000111522
0.000110188
0.000108485
0.000106363
0.000103788
0.000100831
9.75048e-05
9.3743e-05
8.94826e-05
8.47653e-05
7.97519e-05
7.46719e-05
6.97281e-05
6.50399e-05
6.0678e-05
5.66799e-05
5.31881e-05
4.99701e-05
4.78596e-05
4.45964e-05
4.42722e-05
4.37862e-05
9.43899e-05
9.28838e-05
9.13365e-05
8.95856e-05
8.78092e-05
8.59802e-05
8.41224e-05
8.23109e-05
8.05649e-05
7.88693e-05
7.72109e-05
7.5574e-05
7.39301e-05
7.2239e-05
7.04706e-05
6.85906e-05
6.65582e-05
6.43434e-05
6.19158e-05
5.92504e-05
5.63295e-05
5.31431e-05
4.96962e-05
4.6032e-05
4.22329e-05
3.83888e-05
3.45696e-05
3.0831e-05
2.72236e-05
2.37944e-05
2.05853e-05
1.76374e-05
1.4993e-05
1.27012e-05
1.08122e-05
9.61213e-06
9.18127e-06
1.00605e-05
1.35027e-05
8.49571e-05
8.63275e-05
8.7824e-05
8.93495e-05
9.08854e-05
9.24464e-05
9.39749e-05
9.54253e-05
9.67888e-05
9.80342e-05
9.91311e-05
0.000100062
0.000100808
0.000101335
0.000101626
0.000101651
0.000101384
0.000100802
9.98805e-05
9.86331e-05
9.70222e-05
9.50062e-05
9.26265e-05
8.99053e-05
8.67904e-05
8.32223e-05
7.92275e-05
7.49294e-05
7.05076e-05
6.61339e-05
6.19236e-05
5.79557e-05
5.42703e-05
5.09991e-05
4.7971e-05
4.56959e-05
4.31728e-05
4.06321e-05
4.16041e-05
8.35725e-05
8.2222e-05
8.08441e-05
7.93019e-05
7.77373e-05
7.61357e-05
7.45175e-05
7.29538e-05
7.1456e-05
7.00109e-05
6.86059e-05
6.72293e-05
6.58537e-05
6.44465e-05
6.29795e-05
6.14187e-05
5.9731e-05
5.78878e-05
5.58568e-05
5.36117e-05
5.11323e-05
4.84028e-05
4.54199e-05
4.22182e-05
3.88685e-05
3.54523e-05
3.20281e-05
2.86482e-05
2.53573e-05
2.22002e-05
1.92171e-05
1.64477e-05
1.39341e-05
1.17227e-05
9.8666e-06
8.63234e-06
8.1577e-06
8.92241e-06
1.18825e-05
7.53447e-05
7.65787e-05
7.79315e-05
7.93186e-05
8.07199e-05
8.21542e-05
8.35667e-05
8.49202e-05
8.6204e-05
8.73959e-05
8.8466e-05
8.94045e-05
9.01897e-05
9.08007e-05
9.12189e-05
9.14172e-05
9.13742e-05
9.10663e-05
9.04703e-05
8.95898e-05
8.83952e-05
8.68472e-05
8.49578e-05
8.27576e-05
8.02021e-05
7.72377e-05
7.38787e-05
7.02183e-05
6.63943e-05
6.2551e-05
5.87938e-05
5.52044e-05
5.18255e-05
4.87669e-05
4.59331e-05
4.35662e-05
4.13833e-05
3.82305e-05
3.8269e-05
7.41038e-05
7.28959e-05
7.16656e-05
7.03038e-05
6.89217e-05
6.75137e-05
6.6099e-05
6.47402e-05
6.34469e-05
6.22067e-05
6.10102e-05
5.98448e-05
5.86868e-05
5.75055e-05
5.62779e-05
5.49762e-05
5.35692e-05
5.20296e-05
5.0327e-05
4.84353e-05
4.63319e-05
4.39966e-05
4.14203e-05
3.86283e-05
3.5681e-05
3.26497e-05
2.95902e-05
2.65425e-05
2.35481e-05
2.06483e-05
1.7881e-05
1.52834e-05
1.28973e-05
1.07648e-05
8.94148e-06
7.67741e-06
7.16538e-06
7.84847e-06
1.04192e-05
6.6909e-05
6.80199e-05
6.92419e-05
7.05025e-05
7.17791e-05
7.30935e-05
7.43941e-05
7.56493e-05
7.68518e-05
7.79793e-05
7.90095e-05
7.99329e-05
8.07323e-05
8.13908e-05
8.18904e-05
8.22123e-05
8.23339e-05
8.22345e-05
8.1893e-05
8.13021e-05
8.04464e-05
7.92814e-05
7.78029e-05
7.60449e-05
7.39733e-05
7.15342e-05
6.87322e-05
6.56362e-05
6.2352e-05
5.8996e-05
5.56649e-05
5.24357e-05
4.93533e-05
4.65087e-05
4.38502e-05
4.1491e-05
3.93767e-05
3.62654e-05
3.52286e-05
6.57966e-05
6.47151e-05
6.36148e-05
6.241e-05
6.11862e-05
5.99433e-05
5.87027e-05
5.75172e-05
5.63939e-05
5.53233e-05
5.42962e-05
5.33009e-05
5.23169e-05
5.13203e-05
5.02886e-05
4.91957e-05
4.80162e-05
4.67251e-05
4.52948e-05
4.36974e-05
4.1911e-05
3.99135e-05
3.76921e-05
3.52627e-05
3.26769e-05
2.99938e-05
2.72651e-05
2.4523e-05
2.18048e-05
1.91466e-05
1.65844e-05
1.41523e-05
1.18898e-05
9.83522e-06
8.04419e-06
6.7533e-06
6.20884e-06
6.84202e-06
9.10677e-06
5.9488e-05
6.04893e-05
6.15929e-05
6.27359e-05
6.38983e-05
6.50992e-05
6.62936e-05
6.74519e-05
6.85722e-05
6.96307e-05
7.06115e-05
7.15048e-05
7.22991e-05
7.2977e-05
7.35269e-05
7.3932e-05
7.41721e-05
7.42289e-05
7.40823e-05
7.37197e-05
7.3134e-05
7.22845e-05
7.115e-05
6.97672e-05
6.81065e-05
6.61174e-05
6.37974e-05
6.11968e-05
5.83961e-05
5.54862e-05
5.2551e-05
4.9662e-05
4.68648e-05
4.42303e-05
4.17362e-05
3.94386e-05
3.73092e-05
3.43628e-05
3.26298e-05
5.84924e-05
5.75226e-05
5.65366e-05
5.54692e-05
5.43833e-05
5.32829e-05
5.21915e-05
5.11517e-05
5.01715e-05
4.92412e-05
4.83544e-05
4.7499e-05
4.66577e-05
4.58094e-05
4.49356e-05
4.40139e-05
4.30203e-05
4.19322e-05
4.07262e-05
3.93761e-05
3.7858e-05
3.61486e-05
3.42324e-05
3.21202e-05
2.98539e-05
2.74859e-05
2.50563e-05
2.25952e-05
2.01331e-05
1.77018e-05
1.53345e-05
1.30614e-05
1.09186e-05
8.94107e-06
7.18276e-06
5.86681e-06
5.29337e-06
5.90367e-06
7.93419e-06
5.29468e-05
5.38492e-05
5.48463e-05
5.58811e-05
5.69379e-05
5.80335e-05
5.91263e-05
6.01934e-05
6.12307e-05
6.22194e-05
6.31439e-05
6.39983e-05
6.47722e-05
6.54517e-05
6.60279e-05
6.64851e-05
6.68065e-05
6.69774e-05
6.69778e-05
6.67943e-05
6.64223e-05
6.5826e-05
6.49779e-05
6.39078e-05
6.25937e-05
6.09885e-05
5.90842e-05
5.69161e-05
5.45436e-05
5.20377e-05
4.94677e-05
4.6897e-05
4.43706e-05
4.19455e-05
3.96071e-05
3.7395e-05
3.52612e-05
3.24477e-05
3.03278e-05
5.2056e-05
5.11865e-05
5.03019e-05
4.93543e-05
4.83888e-05
4.74117e-05
4.64484e-05
4.55341e-05
4.46745e-05
4.38616e-05
4.309e-05
4.23502e-05
4.16262e-05
4.08998e-05
4.0154e-05
3.9371e-05
3.85295e-05
3.76103e-05
3.65893e-05
3.54441e-05
3.41521e-05
3.26897e-05
3.10378e-05
2.92038e-05
2.72201e-05
2.51321e-05
2.29731e-05
2.07677e-05
1.85413e-05
1.63223e-05
1.41389e-05
1.20181e-05
9.9921e-06
8.09123e-06
6.36578e-06
5.02481e-06
4.42367e-06
5.03617e-06
6.89427e-06
4.71712e-05
4.79832e-05
4.88845e-05
4.98202e-05
5.078e-05
5.17784e-05
5.27759e-05
5.37563e-05
5.47124e-05
5.56312e-05
5.64969e-05
5.7306e-05
5.80485e-05
5.87162e-05
5.9299e-05
5.97847e-05
6.01608e-05
6.04114e-05
6.0522e-05
6.04762e-05
6.02726e-05
5.98773e-05
5.92632e-05
5.8451e-05
5.74266e-05
5.61472e-05
5.45984e-05
5.28052e-05
5.08095e-05
4.86653e-05
4.64295e-05
4.4156e-05
4.18824e-05
3.96622e-05
3.74781e-05
3.53614e-05
3.32516e-05
3.05437e-05
2.82169e-05
4.63727e-05
4.55935e-05
4.48001e-05
4.39569e-05
4.30974e-05
4.2229e-05
4.13755e-05
4.05685e-05
3.98113e-05
3.90973e-05
3.84224e-05
3.7778e-05
3.71502e-05
3.65241e-05
3.58847e-05
3.52157e-05
3.44991e-05
3.37174e-05
3.28503e-05
3.18765e-05
3.07742e-05
2.95212e-05
2.80972e-05
2.65049e-05
2.47705e-05
2.29314e-05
2.10154e-05
1.90426e-05
1.70337e-05
1.50127e-05
1.30033e-05
1.10289e-05
9.11755e-06
7.29394e-06
5.60231e-06
4.23466e-06
3.60333e-06
4.24213e-06
5.97851e-06
4.20617e-05
4.27933e-05
4.36064e-05
4.44528e-05
4.53232e-05
4.62307e-05
4.71409e-05
4.80382e-05
4.89173e-05
4.97664e-05
5.05727e-05
5.13326e-05
5.20394e-05
5.26848e-05
5.32615e-05
5.37596e-05
5.41676e-05
5.44726e-05
5.46621e-05
5.472e-05
5.46449e-05
5.44085e-05
5.39825e-05
5.33839e-05
5.2599e-05
5.15905e-05
5.03432e-05
4.88721e-05
4.72059e-05
4.53835e-05
4.34499e-05
4.14502e-05
3.94164e-05
3.73893e-05
3.53609e-05
3.33419e-05
3.1281e-05
2.86755e-05
2.62469e-05
4.13456e-05
4.06482e-05
3.99366e-05
3.91843e-05
3.84185e-05
3.76459e-05
3.6888e-05
3.61733e-05
3.55037e-05
3.48742e-05
3.42809e-05
3.37163e-05
3.31687e-05
3.26249e-05
3.20732e-05
3.14983e-05
3.08848e-05
3.02173e-05
2.94778e-05
2.86471e-05
2.77053e-05
2.663e-05
2.54014e-05
2.40187e-05
2.25022e-05
2.08844e-05
1.91865e-05
1.74248e-05
1.56156e-05
1.37784e-05
1.19337e-05
1.01001e-05
8.30149e-06
6.5567e-06
4.9016e-06
3.50466e-06
2.83583e-06
3.52643e-06
5.18043e-06
3.75346e-05
3.81942e-05
3.8927e-05
3.96922e-05
4.04812e-05
4.13046e-05
4.21339e-05
4.29534e-05
4.37599e-05
4.45418e-05
4.52895e-05
4.59991e-05
4.66655e-05
4.72815e-05
4.78425e-05
4.83386e-05
4.87625e-05
4.91024e-05
4.93466e-05
4.94804e-05
4.95026e-05
4.93893e-05
4.9114e-05
4.86873e-05
4.8099e-05
4.73162e-05
4.63225e-05
4.51254e-05
4.37439e-05
4.22053e-05
4.05432e-05
3.87928e-05
3.69818e-05
3.51413e-05
3.32639e-05
3.13506e-05
2.93559e-05
2.68633e-05
2.44046e-05
3.68929e-05
3.62684e-05
3.56304e-05
3.4958e-05
3.42754e-05
3.35872e-05
3.29131e-05
3.22782e-05
3.16844e-05
3.11267e-05
3.06025e-05
3.01059e-05
2.9626e-05
2.91509e-05
2.86714e-05
2.81743e-05
2.76463e-05
2.70742e-05
2.64414e-05
2.57304e-05
2.49233e-05
2.39988e-05
2.29377e-05
2.1737e-05
2.04125e-05
1.89896e-05
1.74869e-05
1.59157e-05
1.42895e-05
1.26232e-05
1.09338e-05
9.2363e-06
7.54953e-06
5.88721e-06
4.27403e-06
2.84564e-06
2.12403e-06
2.89565e-06
4.49463e-06
3.35186e-05
3.41124e-05
3.47732e-05
3.54641e-05
3.61784e-05
3.69257e-05
3.76793e-05
3.84265e-05
3.91648e-05
3.98828e-05
4.05728e-05
4.12319e-05
4.18556e-05
4.24384e-05
4.29766e-05
4.34631e-05
4.38902e-05
4.42482e-05
4.45273e-05
4.47152e-05
4.48094e-05
4.47902e-05
4.46338e-05
4.43449e-05
4.39153e-05
4.33177e-05
4.25357e-05
4.157e-05
4.04327e-05
3.9142e-05
3.77213e-05
3.61978e-05
3.45918e-05
3.29279e-05
3.11981e-05
2.93978e-05
2.74815e-05
2.51092e-05
2.26795e-05
3.29433e-05
3.23837e-05
3.18121e-05
3.12111e-05
3.06019e-05
2.99882e-05
2.93879e-05
2.88228e-05
2.82947e-05
2.7799e-05
2.73347e-05
2.68948e-05
2.64715e-05
2.60554e-05
2.56369e-05
2.52049e-05
2.4748e-05
2.42549e-05
2.3711e-05
2.31006e-05
2.24073e-05
2.16117e-05
2.06943e-05
1.96505e-05
1.84936e-05
1.72433e-05
1.59148e-05
1.45161e-05
1.3057e-05
1.15497e-05
1.00071e-05
8.44158e-06
6.86691e-06
5.29218e-06
3.72999e-06
2.2726e-06
1.46902e-06
2.36018e-06
3.91592e-06
2.99511e-05
3.04858e-05
3.10808e-05
3.17045e-05
3.23506e-05
3.30277e-05
3.37118e-05
3.4392e-05
3.50661e-05
3.57235e-05
3.63582e-05
3.69677e-05
3.75483e-05
3.80959e-05
3.8607e-05
3.90762e-05
3.9497e-05
3.98613e-05
4.01615e-05
4.03864e-05
4.05319e-05
4.0583e-05
4.05176e-05
4.03371e-05
4.00348e-05
3.95881e-05
3.89801e-05
3.82089e-05
3.72797e-05
3.62032e-05
3.49954e-05
3.36753e-05
3.22583e-05
3.076e-05
2.91739e-05
2.74882e-05
2.56647e-05
2.34233e-05
2.10627e-05
2.94353e-05
2.89343e-05
2.84219e-05
2.78846e-05
2.73407e-05
2.67932e-05
2.62581e-05
2.57544e-05
2.52837e-05
2.48421e-05
2.44287e-05
2.40385e-05
2.36638e-05
2.32967e-05
2.29294e-05
2.25524e-05
2.21558e-05
2.17293e-05
2.126e-05
2.07347e-05
2.0138e-05
1.94516e-05
1.86575e-05
1.775e-05
1.6739e-05
1.56414e-05
1.44679e-05
1.32247e-05
1.19186e-05
1.05591e-05
9.15589e-06
7.71809e-06
6.25646e-06
4.77621e-06
3.27934e-06
1.80872e-06
8.72943e-07
1.93469e-06
3.44003e-06
2.67782e-05
2.72594e-05
2.77949e-05
2.83577e-05
2.89416e-05
2.95544e-05
3.0175e-05
3.07933e-05
3.14074e-05
3.20084e-05
3.25906e-05
3.31521e-05
3.36899e-05
3.42007e-05
3.46819e-05
3.51294e-05
3.55376e-05
3.59003e-05
3.62101e-05
3.6457e-05
3.66371e-05
3.6739e-05
3.67429e-05
3.66461e-05