/*--------------------------------*- C++ -*----------------------------------*\
| =========                 |                                                 |
| \\      /  F ield         | OpenFOAM: The Open Source CFD Toolbox           |
|  \\    /   O peration     | Version:  2312                                  |
|   \\  /    A nd           | Website:  www.openfoam.com                      |
|    \\/     M anipulation  |                                                 |
\*---------------------------------------------------------------------------*/
FoamFile
{
    version     2.0;
    format      ascii;
    arch        "LSB;label=32;scalar=64";
    class       volScalarField;
    location    "350";
    object      turbulenceProperties:nut;
}
// * * * * * * * * * * * * * * * * * * * * * * * * * * * * * * * * * * * * * //

dimensions      [0 2 -1 0 0 0 0];

internalField   nonuniform List<scalar> 
10720
(
2.58093e-05
2.95361e-05
3.4524e-05
4.09869e-05
4.93109e-05
6.00277e-05
7.38575e-05
9.11621e-05
0.000112979
0.000140353
0.000175239
0.000220752
0.000281321
0.000364904
0.000485084
0.000663884
0.000945923
0.00139531
0.00221754
0.00358951
0.00690255
0.0127117
0.0339192
0.0760505
0.0937355
0.0946655
0.095706
0.0992331
0.102745
0.10448
0.104456
0.103208
0.10084
0.0974096
0.0927903
0.0869089
0.0784457
0.0683151
0.0332542
2.25835e-05
1.98047e-05
1.70744e-05
1.45844e-05
1.22504e-05
1.01077e-05
8.24504e-06
6.96168e-06
8.09655e-06
1.07907e-05
1.54809e-05
2.32262e-05
3.55747e-05
5.44523e-05
8.1385e-05
0.000117942
0.000167174
0.000236271
0.000339375
0.000501797
0.000773231
0.00124192
0.0021175
0.00376977
0.00732779
0.0147224
0.0324763
0.0663198
0.0934683
0.105025
0.108433
0.109374
0.10947
0.108974
0.107973
0.106576
0.104431
0.101996
0.0924601
5.08546e-06
4.98031e-06
4.88543e-06
4.8068e-06
4.7166e-06
4.63378e-06
4.57243e-06
4.51873e-06
4.49563e-06
4.51593e-06
4.54346e-06
4.81855e-06
5.87915e-06
8.65347e-06
1.64143e-05
3.68104e-05
8.39124e-05
0.000162819
0.000315499
0.000588963
0.00131798
0.00282063
0.00706633
0.0204301
0.039493
0.0633378
0.0926096
0.123738
0.148748
0.162686
0.167972
0.168794
0.167211
0.163862
0.159351
0.153849
0.148539
0.139517
0.139932
5.16906e-06
5.28231e-06
5.37882e-06
5.50982e-06
5.64411e-06
5.77999e-06
5.91113e-06
6.02171e-06
5.95913e-06
5.81772e-06
5.62463e-06
5.39034e-06
5.12411e-06
4.82947e-06
4.49574e-06
4.11977e-06
3.67671e-06
3.16247e-06
2.54831e-06
1.84353e-06
1.07406e-06
4.20542e-07
5.41028e-08
1.46932e-09
9.29511e-09
9.37111e-05
0.000539899
0.00415646
0.014115
0.0287189
0.0437265
0.0550619
0.0618249
0.0656068
0.0680046
0.0699949
0.0717265
0.0752984
0.0784593
6.26621e-06
6.28355e-06
6.30152e-06
6.32085e-06
6.34455e-06
6.37106e-06
6.40138e-06
6.43684e-06
6.47869e-06
6.52769e-06
6.58593e-06
6.65749e-06
6.73669e-06
6.88153e-06
6.88351e-06
6.49814e-06
4.8912e-06
3.92051e-06
2.44823e-07
9.73014e-05
0.000263874
0.000196643
0.000333256
0.000991985
0.00325658
0.00759021
0.0155851
0.0309362
0.0573304
0.0937699
0.132803
0.164512
0.184927
0.196771
0.203467
0.20635
0.2076
0.201508
0.210306
6.25295e-06
6.23392e-06
6.21937e-06
6.19778e-06
6.17924e-06
6.15932e-06
6.14158e-06
6.12756e-06
6.13233e-06
6.14729e-06
6.16691e-06
6.19089e-06
6.22023e-06
6.25309e-06
6.29011e-06
6.33104e-06
6.37753e-06
6.43082e-06
6.49453e-06
6.57198e-06
6.67143e-06
6.79899e-06
6.98027e-06
7.17357e-06
7.43596e-06
7.15674e-06
7.24736e-06
2.48442e-06
8.36742e-05
0.000790299
0.00301731
0.00754173
0.0142525
0.0224357
0.0311567
0.0396004
0.0470001
0.0536728
0.0631664
6.08616e-06
6.08377e-06
6.08316e-06
6.08353e-06
6.08445e-06
6.08712e-06
6.09201e-06
6.09875e-06
6.1088e-06
6.1224e-06
6.14036e-06
6.16386e-06
6.19448e-06
6.23347e-06
6.28349e-06
6.34538e-06
6.22289e-06
5.88326e-06
4.16857e-06
1.14039e-06
1.11175e-08
7.8841e-06
3.15144e-05
0.000195436
0.000679682
0.00163376
0.00052033
0.00139066
0.00417071
0.013443
0.0355573
0.0727385
0.118829
0.161352
0.193249
0.215389
0.231983
0.239185
0.255285
6.08684e-06
6.08918e-06
6.0923e-06
6.0945e-06
6.09829e-06
6.10033e-06
6.10164e-06
6.10257e-06
6.10043e-06
6.09774e-06
6.09426e-06
6.09052e-06
6.08706e-06
6.08364e-06
6.0803e-06
6.07682e-06
6.07315e-06
6.06915e-06
6.06409e-06
6.05901e-06
6.05364e-06
6.04792e-06
6.04111e-06
6.03484e-06
6.02805e-06
6.03039e-06
6.02313e-06
6.08256e-06
5.99891e-06
5.95233e-06
5.20968e-06
4.17236e-06
0.000226702
0.0010463
0.00304142
0.00688858
0.0130926
0.0218333
0.0392165
6.11123e-06
6.11179e-06
6.11206e-06
6.11295e-06
6.1145e-06
6.11647e-06
6.11914e-06
6.12271e-06
6.12742e-06
6.1336e-06
6.14168e-06
6.15226e-06
6.16614e-06
6.18396e-06
6.20829e-06
6.23585e-06
6.28472e-06
6.30886e-06
6.54815e-06
6.53119e-06
3.42921e-06
1.10224e-07
7.09462e-09
2.71022e-10
0
0
8.88433e-05
0.000298355
0.000935408
0.000504007
0.00159476
0.00795719
0.029559
0.0707168
0.12415
0.175094
0.217226
0.248094
0.278323
6.11127e-06
6.1099e-06
6.11059e-06
6.10954e-06
6.11042e-06
6.10921e-06
6.1071e-06
6.10521e-06
6.10415e-06
6.1039e-06
6.10389e-06
6.10379e-06
6.10414e-06
6.10467e-06
6.10564e-06
6.10687e-06
6.10842e-06
6.11026e-06
6.11245e-06
6.11493e-06
6.11769e-06
6.12073e-06
6.12417e-06
6.12797e-06
6.1329e-06
6.13719e-06
6.15044e-06
6.13008e-06
6.27275e-06
5.69505e-06
8.70861e-06
5.81423e-07
2.56277e-05
0.000247834
6.43886e-05
0.000309787
0.00104163
0.0017412
0.0136975
6.1051e-06
6.10488e-06
6.10517e-06
6.10543e-06
6.10553e-06
6.10593e-06
6.10652e-06
6.1073e-06
6.10851e-06
6.11021e-06
6.11252e-06
6.11575e-06
6.12011e-06
6.12601e-06
6.13417e-06
6.14483e-06
6.16096e-06
6.17342e-06
6.22121e-06
6.33692e-06
6.43499e-06
5.81635e-06
3.01917e-06
1.89657e-07
9.47702e-09
2.24348e-09
1.26424e-10
0
0
8.9289e-05
0.000355095
0.0018159
0.000368045
0.00873537
0.0380876
0.0933259
0.160462
0.224055
0.278385
6.10463e-06
6.10394e-06
6.10485e-06
6.10463e-06
6.10633e-06
6.10606e-06
6.1047e-06
6.10349e-06
6.10251e-06
6.10191e-06
6.10147e-06
6.10099e-06
6.10074e-06
6.10057e-06
6.10057e-06
6.10059e-06
6.10072e-06
6.10091e-06
6.10117e-06
6.10142e-06
6.10165e-06
6.10178e-06
6.10185e-06
6.10149e-06
6.10143e-06
6.10174e-06
6.10215e-06
6.10394e-06
6.10352e-06
6.11248e-06
6.09293e-06
6.1758e-06
5.49937e-06
4.2063e-06
2.1177e-06
4.42383e-05
0.000241266
0.000453531
0.00238354
6.10534e-06
6.10556e-06
6.10572e-06
6.10576e-06
6.10588e-06
6.10597e-06
6.10615e-06
6.10649e-06
6.10697e-06
6.10768e-06
6.10872e-06
6.11018e-06
6.11224e-06
6.11512e-06
6.11907e-06
6.12465e-06
6.13215e-06
6.14074e-06
6.14932e-06
6.16542e-06
6.26059e-06
6.35673e-06
6.50985e-06
5.82721e-06
3.65565e-06
1.36502e-06
7.55347e-08
8.94016e-09
3.44288e-09
4.76992e-11
0
0
5.3068e-05
0.00205295
0.00167745
0.0217424
0.0782583
0.166253
0.252377
6.10487e-06
6.10381e-06
6.1042e-06
6.10388e-06
6.10553e-06
6.10546e-06
6.10427e-06
6.10311e-06
6.10222e-06
6.10171e-06
6.10135e-06
6.10115e-06
6.10103e-06
6.10109e-06
6.10104e-06
6.10108e-06
6.10124e-06
6.10148e-06
6.10181e-06
6.10223e-06
6.10273e-06
6.10331e-06
6.10398e-06
6.10478e-06
6.10576e-06
6.10705e-06
6.10872e-06
6.11081e-06
6.11343e-06
6.11673e-06
6.12101e-06
6.131e-06
6.2006e-06
5.77134e-06
3.30262e-06
3.1251e-07
9.74949e-09
1.77567e-11
6.17292e-05
6.10491e-06
6.10505e-06
6.10534e-06
6.10531e-06
6.10513e-06
6.105e-06
6.10485e-06
6.10468e-06
6.10464e-06
6.10464e-06
6.10473e-06
6.10496e-06
6.10533e-06
6.10592e-06
6.10682e-06
6.10818e-06
6.11018e-06
6.11284e-06
6.11506e-06
6.11701e-06
6.12377e-06
6.13637e-06
6.20972e-06
6.5083e-06
6.75285e-06
6.49291e-06
5.46015e-06
3.46054e-06
1.78225e-06
2.48769e-08
7.86061e-09
1.69267e-11
0
0
0.000385732
0.00542241
0.0161709
0.0904908
0.200108
6.10432e-06
6.10318e-06
6.10318e-06
6.10276e-06
6.10437e-06
6.10452e-06
6.10362e-06
6.10258e-06
6.10177e-06
6.10131e-06
6.101e-06
6.10083e-06
6.10076e-06
6.10086e-06
6.10094e-06
6.10105e-06
6.10112e-06
6.10113e-06
6.10121e-06
6.10131e-06
6.10144e-06
6.10157e-06
6.10174e-06
6.10189e-06
6.10202e-06
6.10219e-06
6.10242e-06
6.10267e-06
6.10294e-06
6.10304e-06
6.10356e-06
6.10113e-06
6.11226e-06
6.06704e-06
6.19399e-06
5.03303e-06
2.88074e-06
1.81385e-08
6.03542e-07
6.10484e-06
6.10497e-06
6.10511e-06
6.10493e-06
6.10474e-06
6.10446e-06
6.10423e-06
6.10411e-06
6.10399e-06
6.10393e-06
6.10396e-06
6.10406e-06
6.10429e-06
6.10469e-06
6.10532e-06
6.10626e-06
6.10768e-06
6.1096e-06
6.1115e-06
6.11327e-06
6.11402e-06
6.11723e-06
6.10355e-06
6.12664e-06
6.28768e-06
6.54952e-06
6.87006e-06
7.12204e-06
7.04793e-06
5.12025e-06
3.007e-06
8.23739e-09
3.10137e-09
0
0
0
0.00442059
0.0305922
0.13291
6.10426e-06
6.10301e-06
6.10266e-06
6.10207e-06
6.1036e-06
6.10386e-06
6.10317e-06
6.10221e-06
6.10151e-06
6.10107e-06
6.10082e-06
6.10069e-06
6.10064e-06
6.10071e-06
6.10081e-06
6.10095e-06
6.10109e-06
6.10122e-06
6.10132e-06
6.10132e-06
6.10139e-06
6.1015e-06
6.10167e-06
6.10185e-06
6.10207e-06
6.10241e-06
6.10291e-06
6.10358e-06
6.10444e-06
6.1055e-06
6.10686e-06
6.10839e-06
6.1113e-06
6.11129e-06
6.14033e-06
6.21646e-06
6.6431e-06
4.60614e-06
2.65092e-09
6.10475e-06
6.10476e-06
6.10477e-06
6.10449e-06
6.10419e-06
6.1039e-06
6.1036e-06
6.10338e-06
6.10316e-06
6.10298e-06
6.10283e-06
6.10272e-06
6.10264e-06
6.10258e-06
6.10255e-06
6.10255e-06
6.10262e-06
6.1027e-06
6.10293e-06
6.10356e-06
6.10441e-06
6.10747e-06
6.10821e-06
6.09388e-06
6.08836e-06
6.12408e-06
6.24609e-06
6.49617e-06
6.86093e-06
7.2665e-06
7.56909e-06
5.18956e-06
1.19734e-06
1.08121e-08
0
0
2.71901e-08
0.000457319
0.072446
6.10426e-06
6.10298e-06
6.10233e-06
6.10155e-06
6.10296e-06
6.1033e-06
6.10274e-06
6.10187e-06
6.10127e-06
6.10088e-06
6.10073e-06
6.10056e-06
6.10048e-06
6.10053e-06
6.1006e-06
6.10076e-06
6.10093e-06
6.10111e-06
6.10127e-06
6.10142e-06
6.10152e-06
6.10161e-06
6.1016e-06
6.10162e-06
6.10166e-06
6.10176e-06
6.10194e-06
6.10221e-06
6.10255e-06
6.10297e-06
6.1034e-06
6.10413e-06
6.1038e-06
6.10914e-06
6.08874e-06
6.17665e-06
5.80882e-06
8.77345e-06
5.75663e-07
6.10463e-06
6.10449e-06
6.10436e-06
6.10402e-06
6.10367e-06
6.10334e-06
6.10304e-06
6.10284e-06
6.10266e-06
6.10252e-06
6.10243e-06
6.10236e-06
6.10235e-06
6.10239e-06
6.10249e-06
6.1027e-06
6.10302e-06
6.10353e-06
6.10411e-06
6.10468e-06
6.1051e-06
6.10572e-06
6.1082e-06
6.10789e-06
6.09844e-06
6.08382e-06
6.07673e-06
6.1078e-06
6.19823e-06
6.44764e-06
6.86837e-06
7.64132e-06
7.18504e-06
3.01588e-06
1.5783e-08
0
0
0.000802798
0.0333216
6.10427e-06
6.10302e-06
6.10216e-06
6.10122e-06
6.10247e-06
6.10285e-06
6.10238e-06
6.10159e-06
6.10107e-06
6.10074e-06
6.10058e-06
6.10042e-06
6.10032e-06
6.10033e-06
6.10039e-06
6.10053e-06
6.10069e-06
6.10089e-06
6.10107e-06
6.10125e-06
6.10141e-06
6.10156e-06
6.10167e-06
6.10176e-06
6.10181e-06
6.10188e-06
6.10202e-06
6.10226e-06
6.10258e-06
6.10302e-06
6.10353e-06
6.10439e-06
6.10437e-06
6.10889e-06
6.09355e-06
6.16426e-06
5.85614e-06
7.15273e-06
4.37302e-06
6.10445e-06
6.10416e-06
6.10392e-06
6.10354e-06
6.10317e-06
6.10283e-06
6.10254e-06
6.10234e-06
6.10216e-06
6.10203e-06
6.10193e-06
6.10184e-06
6.10178e-06
6.10175e-06
6.10175e-06
6.10179e-06
6.10187e-06
6.102e-06
6.10222e-06
6.10264e-06
6.10324e-06
6.10387e-06
6.10507e-06
6.10733e-06
6.10812e-06
6.10449e-06
6.09398e-06
6.08128e-06
6.07071e-06
6.09578e-06
6.16781e-06
6.50668e-06
7.2162e-06
7.79095e-06
4.00366e-06
1.04768e-08
0
0.000283052
0.0131197
6.10425e-06
6.10308e-06
6.10207e-06
6.10097e-06
6.10209e-06
6.10246e-06
6.10206e-06
6.10133e-06
6.10087e-06
6.10057e-06
6.10042e-06
6.10029e-06
6.10015e-06
6.10013e-06
6.10015e-06
6.10026e-06
6.10041e-06
6.1006e-06
6.10079e-06
6.10101e-06
6.10122e-06
6.10143e-06
6.10161e-06
6.10177e-06
6.10192e-06
6.102e-06
6.10204e-06
6.10213e-06
6.10228e-06
6.10251e-06
6.10281e-06
6.10325e-06
6.1035e-06
6.10508e-06
6.1016e-06
6.11902e-06
6.05945e-06
6.20445e-06
6.16444e-06
6.10421e-06
6.10379e-06
6.10348e-06
6.10309e-06
6.10272e-06
6.10239e-06
6.10212e-06
6.10194e-06
6.10178e-06
6.10168e-06
6.10162e-06
6.10157e-06
6.10155e-06
6.10155e-06
6.10157e-06
6.10164e-06
6.10174e-06
6.10192e-06
6.10217e-06
6.10249e-06
6.10289e-06
6.10336e-06
6.10394e-06
6.10506e-06
6.10682e-06
6.10839e-06
6.10804e-06
6.10432e-06
6.09536e-06
6.08275e-06
6.06533e-06
6.07154e-06
6.25032e-06
6.80246e-06
8.53146e-06
2.50029e-06
6.21973e-12
7.33002e-05
0.00434397
6.10418e-06
6.10313e-06
6.10203e-06
6.10082e-06
6.10178e-06
6.10213e-06
6.10177e-06
6.10111e-06
6.10069e-06
6.10041e-06
6.10025e-06
6.10011e-06
6.09997e-06
6.09992e-06
6.09991e-06
6.1e-06
6.10012e-06
6.10031e-06
6.10052e-06
6.10076e-06
6.101e-06
6.10125e-06
6.10147e-06
6.10167e-06
6.10187e-06
6.10201e-06
6.10208e-06
6.10211e-06
6.1022e-06
6.10235e-06
6.10258e-06
6.1029e-06
6.10332e-06
6.1037e-06
6.10476e-06
6.10283e-06
6.11692e-06
6.05261e-06
6.25744e-06
6.10391e-06
6.10341e-06
6.10306e-06
6.10268e-06
6.10232e-06
6.10198e-06
6.10174e-06
6.1016e-06
6.10148e-06
6.10143e-06
6.1014e-06
6.10138e-06
6.10137e-06
6.10138e-06
6.10139e-06
6.10143e-06
6.1015e-06
6.1016e-06
6.10175e-06
6.10198e-06
6.10231e-06
6.10273e-06
6.10324e-06
6.1039e-06
6.10495e-06
6.10645e-06
6.10819e-06
6.10958e-06
6.10993e-06
6.10707e-06
6.09935e-06
6.07275e-06
6.05082e-06
6.08135e-06
6.66805e-06
9.96456e-06
2.10375e-11
1.36665e-06
0.00111127
6.10404e-06
6.10314e-06
6.10201e-06
6.10071e-06
6.10152e-06
6.10185e-06
6.10152e-06
6.10091e-06
6.10051e-06
6.10023e-06
6.10007e-06
6.09994e-06
6.09979e-06
6.09971e-06
6.09968e-06
6.09975e-06
6.09988e-06
6.10005e-06
6.10026e-06
6.1005e-06
6.10075e-06
6.10101e-06
6.10126e-06
6.1015e-06
6.10173e-06
6.10192e-06
6.10205e-06
6.10212e-06
6.10214e-06
6.10221e-06
6.10234e-06
6.10254e-06
6.10285e-06
6.10305e-06
6.10413e-06
6.10211e-06
6.1126e-06
6.08134e-06
6.14634e-06
6.10358e-06
6.10305e-06
6.10268e-06
6.1023e-06
6.10195e-06
6.10163e-06
6.10144e-06
6.10134e-06
6.10128e-06
6.10126e-06
6.10127e-06
6.10128e-06
6.1013e-06
6.10134e-06
6.10137e-06
6.10142e-06
6.10148e-06
6.10158e-06
6.1017e-06
6.10189e-06
6.10213e-06
6.10245e-06
6.10285e-06
6.10335e-06
6.10404e-06
6.10503e-06
6.10637e-06
6.10798e-06
6.10998e-06
6.11201e-06
6.11366e-06
6.11204e-06
6.08054e-06
6.10599e-06
5.63686e-06
9.30155e-06
2.67759e-06
3.46581e-10
7.01479e-05
6.10385e-06
6.10311e-06
6.10199e-06
6.10065e-06
6.1013e-06
6.10158e-06
6.10128e-06
6.10072e-06
6.10034e-06
6.10005e-06
6.09988e-06
6.09975e-06
6.0996e-06
6.09951e-06
6.09948e-06
6.09953e-06
6.09963e-06
6.09979e-06
6.09998e-06
6.10022e-06
6.10047e-06
6.10075e-06
6.10103e-06
6.10129e-06
6.10155e-06
6.10177e-06
6.10195e-06
6.10207e-06
6.10213e-06
6.10216e-06
6.10223e-06
6.10236e-06
6.10256e-06
6.10279e-06
6.10329e-06
6.10314e-06
6.10558e-06
6.10209e-06
6.10729e-06
6.10325e-06
6.10272e-06
6.10232e-06
6.10195e-06
6.10162e-06
6.10135e-06
6.10121e-06
6.10116e-06
6.10115e-06
6.10119e-06
6.10123e-06
6.10128e-06
6.10133e-06
6.10137e-06
6.10141e-06
6.10146e-06
6.10151e-06
6.10159e-06
6.10169e-06
6.10183e-06
6.10202e-06
6.10227e-06
6.1026e-06
6.10301e-06
6.10356e-06
6.10431e-06
6.1053e-06
6.10653e-06
6.10801e-06
6.11008e-06
6.11212e-06
6.11958e-06
6.10346e-06
6.16641e-06
5.81514e-06
6.43067e-06
9.44998e-06
4.45763e-11
6.84911e-07
6.10362e-06
6.10303e-06
6.10196e-06
6.1006e-06
6.10112e-06
6.10135e-06
6.10106e-06
6.10054e-06
6.10016e-06
6.09988e-06
6.09971e-06
6.09958e-06
6.09941e-06
6.09932e-06
6.09928e-06
6.09932e-06
6.09941e-06
6.09955e-06
6.09974e-06
6.09997e-06
6.10022e-06
6.1005e-06
6.10079e-06
6.10107e-06
6.10136e-06
6.10161e-06
6.10183e-06
6.10199e-06
6.10211e-06
6.10217e-06
6.10219e-06
6.10225e-06
6.10237e-06
6.10255e-06
6.10281e-06
6.10318e-06
6.10339e-06
6.10575e-06
6.1027e-06
6.10294e-06
6.1024e-06
6.10198e-06
6.10164e-06
6.10135e-06
6.10113e-06
6.10105e-06
6.10106e-06
6.1011e-06
6.10117e-06
6.10125e-06
6.10131e-06
6.10138e-06
6.10144e-06
6.10148e-06
6.10154e-06
6.10159e-06
6.10166e-06
6.10175e-06
6.10187e-06
6.10202e-06
6.10222e-06
6.10248e-06
6.10282e-06
6.10327e-06
6.10388e-06
6.10469e-06
6.10572e-06
6.10687e-06
6.1084e-06
6.10968e-06
6.11457e-06
6.11322e-06
6.12547e-06
6.18999e-06
5.26397e-06
1.2102e-05
2.79801e-10
1.69823e-16
6.10337e-06
6.10292e-06
6.10191e-06
6.10056e-06
6.10095e-06
6.10113e-06
6.10086e-06
6.10037e-06
6.09999e-06
6.0997e-06
6.09953e-06
6.09939e-06
6.09923e-06
6.09914e-06
6.0991e-06
6.09913e-06
6.09921e-06
6.09934e-06
6.09951e-06
6.09973e-06
6.09997e-06
6.10026e-06
6.10055e-06
6.10085e-06
6.10115e-06
6.10142e-06
6.10166e-06
6.10186e-06
6.10202e-06
6.10213e-06
6.10218e-06
6.1022e-06
6.10226e-06
6.10237e-06
6.10255e-06
6.10287e-06
6.10299e-06
6.10491e-06
6.1036e-06
6.10264e-06
6.10211e-06
6.10167e-06
6.10137e-06
6.10113e-06
6.10097e-06
6.10095e-06
6.10101e-06
6.10109e-06
6.10119e-06
6.10128e-06
6.10137e-06
6.10145e-06
6.10152e-06
6.10158e-06
6.10164e-06
6.1017e-06
6.10176e-06
6.10184e-06
6.10194e-06
6.10206e-06
6.10223e-06
6.10245e-06
6.10272e-06
6.1031e-06
6.10361e-06
6.10429e-06
6.10517e-06
6.10621e-06
6.10742e-06
6.10882e-06
6.10984e-06
6.11881e-06
6.08402e-06
6.31179e-06
5.3071e-06
9.46026e-06
1.59672e-06
5.17913e-10
6.1031e-06
6.10278e-06
6.10184e-06
6.10052e-06
6.10079e-06
6.10093e-06
6.10066e-06
6.1002e-06
6.09982e-06
6.09953e-06
6.09936e-06
6.09922e-06
6.09906e-06
6.09897e-06
6.09893e-06
6.09895e-06
6.09902e-06
6.09914e-06
6.0993e-06
6.09951e-06
6.09974e-06
6.10002e-06
6.10032e-06
6.10063e-06
6.10093e-06
6.10122e-06
6.10148e-06
6.10171e-06
6.1019e-06
6.10205e-06
6.10215e-06
6.1022e-06
6.10222e-06
6.10227e-06
6.1024e-06
6.10261e-06
6.10281e-06
6.10407e-06
6.10384e-06
6.10236e-06
6.10183e-06
6.10139e-06
6.10113e-06
6.10095e-06
6.10086e-06
6.10091e-06
6.101e-06
6.1011e-06
6.10123e-06
6.10134e-06
6.10144e-06
6.10153e-06
6.10161e-06
6.10167e-06
6.10173e-06
6.10179e-06
6.10185e-06
6.10192e-06
6.10201e-06
6.10211e-06
6.10225e-06
6.10243e-06
6.10267e-06
6.10298e-06
6.10342e-06
6.104e-06
6.10475e-06
6.10569e-06
6.10671e-06
6.10833e-06
6.10782e-06
6.11871e-06
6.08146e-06
6.24476e-06
5.74184e-06
6.92325e-06
6.82954e-06
8.69658e-08
6.10283e-06
6.10263e-06
6.10175e-06
6.10047e-06
6.10064e-06
6.10073e-06
6.10047e-06
6.10003e-06
6.09965e-06
6.09937e-06
6.09919e-06
6.09904e-06
6.09889e-06
6.09881e-06
6.09877e-06
6.0988e-06
6.09886e-06
6.09897e-06
6.09912e-06
6.09931e-06
6.09954e-06
6.09981e-06
6.1001e-06
6.1004e-06
6.10071e-06
6.10101e-06
6.10128e-06
6.10153e-06
6.10175e-06
6.10193e-06
6.10207e-06
6.10217e-06
6.10222e-06
6.10224e-06
6.10231e-06
6.10244e-06
6.10264e-06
6.10361e-06
6.10359e-06
6.10209e-06
6.10158e-06
6.10114e-06
6.10094e-06
6.10083e-06
6.1008e-06
6.10089e-06
6.10101e-06
6.10113e-06
6.10127e-06
6.10139e-06
6.1015e-06
6.1016e-06
6.10169e-06
6.10176e-06
6.10183e-06
6.1019e-06
6.10197e-06
6.10203e-06
6.10212e-06
6.10221e-06
6.10233e-06
6.10248e-06
6.10267e-06
6.10293e-06
6.1033e-06
6.1038e-06
6.10444e-06
6.10526e-06
6.10615e-06
6.10765e-06
6.10749e-06
6.11463e-06
6.09744e-06
6.15257e-06
6.07628e-06
5.87365e-06
8.49232e-06
1.69423e-06
6.10256e-06
6.10245e-06
6.10165e-06
6.10042e-06
6.1005e-06
6.10055e-06
6.10029e-06
6.09986e-06
6.0995e-06
6.09922e-06
6.09903e-06
6.09887e-06
6.09873e-06
6.09866e-06
6.09863e-06
6.09865e-06
6.09871e-06
6.09881e-06
6.09895e-06
6.09913e-06
6.09934e-06
6.0996e-06
6.09988e-06
6.10019e-06
6.10049e-06
6.10078e-06
6.10106e-06
6.10132e-06
6.10156e-06
6.10177e-06
6.10195e-06
6.10208e-06
6.10218e-06
6.10222e-06
6.10225e-06
6.10234e-06
6.10249e-06
6.10333e-06
6.10331e-06
6.10184e-06
6.10135e-06
6.10092e-06
6.1008e-06
6.10075e-06
6.10077e-06
6.10089e-06
6.10103e-06
6.10117e-06
6.10131e-06
6.10145e-06
6.10157e-06
6.10168e-06
6.10178e-06
6.10187e-06
6.10195e-06
6.10202e-06
6.10209e-06
6.10216e-06
6.10224e-06
6.10233e-06
6.10244e-06
6.10258e-06
6.10274e-06
6.10296e-06
6.10327e-06
6.10369e-06
6.10424e-06
6.10494e-06
6.10575e-06
6.10694e-06
6.10759e-06
6.11046e-06
6.11007e-06
6.10414e-06
6.19492e-06
5.73118e-06
7.57765e-06
4.60037e-06
6.10229e-06
6.10226e-06
6.10154e-06
6.10036e-06
6.10036e-06
6.10037e-06
6.1001e-06
6.09969e-06
6.09934e-06
6.09907e-06
6.09887e-06
6.0987e-06
6.09858e-06
6.09852e-06
6.09849e-06
6.09852e-06
6.09857e-06
6.09867e-06
6.09879e-06
6.09896e-06
6.09915e-06
6.09939e-06
6.09966e-06
6.09995e-06
6.10025e-06
6.10054e-06
6.10082e-06
6.10109e-06
6.10135e-06
6.10158e-06
6.10178e-06
6.10196e-06
6.10209e-06
6.10219e-06
6.10219e-06
6.10224e-06
6.10234e-06
6.10307e-06
6.10306e-06
6.10161e-06
6.10115e-06
6.10075e-06
6.10069e-06
6.10069e-06
6.10076e-06
6.10089e-06
6.10105e-06
6.1012e-06
6.10136e-06
6.10151e-06
6.10164e-06
6.10176e-06
6.10187e-06
6.10196e-06
6.10205e-06
6.10213e-06
6.10221e-06
6.10229e-06
6.10237e-06
6.10246e-06
6.10256e-06
6.10268e-06
6.10283e-06
6.10302e-06
6.10329e-06
6.10365e-06
6.10413e-06
6.10473e-06
6.10547e-06
6.10639e-06
6.10752e-06
6.10815e-06
6.11395e-06
6.09447e-06
6.18568e-06
5.89118e-06
6.61701e-06
6.15292e-06
6.10204e-06
6.10206e-06
6.10141e-06
6.10029e-06
6.10022e-06
6.10019e-06
6.09992e-06
6.09952e-06
6.09918e-06
6.09892e-06
6.09871e-06
6.09855e-06
6.09844e-06
6.09839e-06
6.09837e-06
6.09839e-06
6.09844e-06
6.09852e-06
6.09863e-06
6.09878e-06
6.09896e-06
6.09918e-06
6.09944e-06
6.09972e-06
6.10002e-06
6.1003e-06
6.10059e-06
6.10086e-06
6.10113e-06
6.10138e-06
6.10162e-06
6.10182e-06
6.10199e-06
6.10212e-06
6.10219e-06
6.10221e-06
6.10227e-06
6.10288e-06
6.10287e-06
6.1014e-06
6.10097e-06
6.10062e-06
6.10061e-06
6.10066e-06
6.10074e-06
6.1009e-06
6.10107e-06
6.10124e-06
6.10141e-06
6.10157e-06
6.10171e-06
6.10184e-06
6.10196e-06
6.10207e-06
6.10217e-06
6.10226e-06
6.10234e-06
6.10242e-06
6.10251e-06
6.1026e-06
6.1027e-06
6.10281e-06
6.10294e-06
6.10311e-06
6.10335e-06
6.10366e-06
6.10408e-06
6.1046e-06
6.10527e-06
6.10602e-06
6.10721e-06
6.10741e-06
6.11269e-06
6.10035e-06
6.14626e-06
6.04406e-06
6.17158e-06
6.41744e-06
6.10179e-06
6.10186e-06
6.10126e-06
6.1002e-06
6.10008e-06
6.10001e-06
6.09973e-06
6.09934e-06
6.09901e-06
6.09876e-06
6.09855e-06
6.0984e-06
6.09831e-06
6.09825e-06
6.09823e-06
6.09825e-06
6.09829e-06
6.09837e-06
6.09847e-06
6.0986e-06
6.09877e-06
6.09898e-06
6.09923e-06
6.0995e-06
6.09978e-06
6.10006e-06
6.10034e-06
6.10062e-06
6.1009e-06
6.10117e-06
6.10142e-06
6.10165e-06
6.10185e-06
6.10201e-06
6.10213e-06
6.10217e-06
6.10221e-06
6.10271e-06
6.10272e-06
6.1012e-06
6.10083e-06
6.10052e-06
6.10056e-06
6.10063e-06
6.10073e-06
6.10091e-06
6.10109e-06
6.10127e-06
6.10146e-06
6.10163e-06
6.10178e-06
6.10193e-06
6.10205e-06
6.10217e-06
6.10228e-06
6.10237e-06
6.10247e-06
6.10256e-06
6.10265e-06
6.10274e-06
6.10284e-06
6.10295e-06
6.10307e-06
6.10323e-06
6.10343e-06
6.10371e-06
6.10407e-06
6.10454e-06
6.10513e-06
6.1058e-06
6.10682e-06
6.10732e-06
6.11039e-06
6.10689e-06
6.11955e-06
6.11385e-06
6.06183e-06
6.28613e-06
6.10156e-06
6.10165e-06
6.10111e-06
6.10011e-06
6.09993e-06
6.09983e-06
6.09954e-06
6.09916e-06
6.09884e-06
6.0986e-06
6.0984e-06
6.09825e-06
6.09816e-06
6.09812e-06
6.0981e-06
6.09811e-06
6.09815e-06
6.09821e-06
6.09831e-06
6.09843e-06
6.09858e-06
6.09878e-06
6.09902e-06
6.09928e-06
6.09955e-06
6.09982e-06
6.1001e-06
6.10038e-06
6.10066e-06
6.10093e-06
6.1012e-06
6.10145e-06
6.10167e-06
6.10187e-06
6.10202e-06
6.10212e-06
6.10214e-06
6.10255e-06
6.10259e-06
6.10102e-06
6.10069e-06
6.10043e-06
6.10051e-06
6.1006e-06
6.10073e-06
6.10092e-06
6.10112e-06
6.10131e-06
6.10151e-06
6.10169e-06
6.10185e-06
6.102e-06
6.10215e-06
6.10227e-06
6.10239e-06
6.1025e-06
6.1026e-06
6.1027e-06
6.10279e-06
6.10289e-06
6.10299e-06
6.1031e-06
6.10322e-06
6.10336e-06
6.10355e-06
6.10379e-06
6.10411e-06
6.10452e-06
6.10504e-06
6.10567e-06
6.10651e-06
6.10729e-06
6.10881e-06
6.10988e-06
6.10956e-06
6.12734e-06
6.07401e-06
6.16527e-06
6.10134e-06
6.10145e-06
6.10096e-06
6.1e-06
6.09978e-06
6.09965e-06
6.09935e-06
6.09897e-06
6.09866e-06
6.09842e-06
6.09823e-06
6.0981e-06
6.09801e-06
6.09797e-06
6.09795e-06
6.09796e-06
6.09799e-06
6.09805e-06
6.09814e-06
6.09825e-06
6.0984e-06
6.09858e-06
6.09881e-06
6.09905e-06
6.09932e-06
6.09958e-06
6.09985e-06
6.10012e-06
6.10041e-06
6.10069e-06
6.10097e-06
6.10123e-06
6.10148e-06
6.1017e-06
6.10188e-06
6.10203e-06
6.10204e-06
6.10236e-06
6.10245e-06
6.10085e-06
6.10056e-06
6.10035e-06
6.10046e-06
6.10057e-06
6.10072e-06
6.10094e-06
6.10115e-06
6.10135e-06
6.10156e-06
6.10175e-06
6.10193e-06
6.10209e-06
6.10224e-06
6.10237e-06
6.1025e-06
6.10262e-06
6.10273e-06
6.10284e-06
6.10294e-06
6.10305e-06
6.10315e-06
6.10327e-06
6.10338e-06
6.10352e-06
6.10369e-06
6.10391e-06
6.10419e-06
6.10455e-06
6.10501e-06
6.10558e-06
6.10629e-06
6.10717e-06
6.10807e-06
6.11022e-06
6.10829e-06
6.12161e-06
6.10055e-06
6.11786e-06
6.10113e-06
6.10124e-06
6.10079e-06
6.09989e-06
6.09963e-06
6.09946e-06
6.09916e-06
6.09878e-06
6.09847e-06
6.09825e-06
6.09806e-06
6.09793e-06
6.09785e-06
6.09781e-06
6.09779e-06
6.09781e-06
6.09784e-06
6.0979e-06
6.09797e-06
6.09808e-06
6.09822e-06
6.09839e-06
6.0986e-06
6.09883e-06
6.09908e-06
6.09933e-06
6.0996e-06
6.09987e-06
6.10015e-06
6.10044e-06
6.10073e-06
6.10101e-06
6.10128e-06
6.10152e-06
6.10173e-06
6.10191e-06
6.10193e-06
6.10217e-06
6.10229e-06
6.10069e-06
6.10044e-06
6.10027e-06
6.10041e-06
6.10055e-06
6.10072e-06
6.10095e-06
6.10117e-06
6.10139e-06
6.10161e-06
6.10181e-06
6.10199e-06
6.10217e-06
6.10233e-06
6.10247e-06
6.10261e-06
6.10274e-06
6.10286e-06
6.10298e-06
6.10309e-06
6.1032e-06
6.10332e-06
6.10344e-06
6.10356e-06
6.10369e-06
6.10385e-06
6.10405e-06
6.1043e-06
6.10463e-06
6.10504e-06
6.10555e-06
6.10618e-06
6.10701e-06
6.10779e-06
6.10961e-06
6.10923e-06
6.11519e-06
6.11329e-06
6.11095e-06
6.10092e-06
6.10104e-06
6.10062e-06
6.09976e-06
6.09947e-06
6.09927e-06
6.09895e-06
6.09858e-06
6.09828e-06
6.09806e-06
6.09788e-06
6.09776e-06
6.09769e-06
6.09765e-06
6.09763e-06
6.09764e-06
6.09768e-06
6.09773e-06
6.0978e-06
6.0979e-06
6.09802e-06
6.09818e-06
6.09838e-06
6.09861e-06
6.09884e-06
6.09909e-06
6.09934e-06
6.09961e-06
6.09989e-06
6.10018e-06
6.10047e-06
6.10076e-06
6.10104e-06
6.10131e-06
6.10155e-06
6.10176e-06
6.10184e-06
6.102e-06
6.10216e-06
6.10054e-06
6.10033e-06
6.1002e-06
6.10036e-06
6.10052e-06
6.10071e-06
6.10096e-06
6.1012e-06
6.10143e-06
6.10166e-06
6.10187e-06
6.10207e-06
6.10225e-06
6.10242e-06
6.10257e-06
6.10272e-06
6.10286e-06
6.10299e-06
6.10311e-06
6.10324e-06
6.10336e-06
6.10348e-06
6.1036e-06
6.10373e-06
6.10386e-06
6.10401e-06
6.1042e-06
6.10444e-06
6.10473e-06
6.1051e-06
6.10557e-06
6.10614e-06
6.10688e-06
6.10766e-06
6.109e-06
6.10983e-06
6.11213e-06
6.11538e-06
6.11441e-06
6.10073e-06
6.10084e-06
6.10045e-06
6.09962e-06
6.0993e-06
6.09907e-06
6.09874e-06
6.09837e-06
6.09808e-06
6.09786e-06
6.09769e-06
6.09758e-06
6.09751e-06
6.09747e-06
6.09746e-06
6.09747e-06
6.0975e-06
6.09755e-06
6.09762e-06
6.09771e-06
6.09783e-06
6.09798e-06
6.09816e-06
6.09838e-06
6.0986e-06
6.09883e-06
6.09908e-06
6.09934e-06
6.09961e-06
6.0999e-06
6.1002e-06
6.1005e-06
6.10079e-06
6.10108e-06
6.10134e-06
6.10157e-06
6.10172e-06
6.10183e-06
6.10203e-06
6.1004e-06
6.10022e-06
6.10013e-06
6.10032e-06
6.1005e-06
6.10071e-06
6.10097e-06
6.10122e-06
6.10146e-06
6.1017e-06
6.10192e-06
6.10213e-06
6.10232e-06
6.1025e-06
6.10267e-06
6.10283e-06
6.10297e-06
6.10312e-06
6.10325e-06
6.10338e-06
6.10351e-06
6.10364e-06
6.10377e-06
6.1039e-06
6.10404e-06
6.10419e-06
6.10437e-06
6.10458e-06
6.10486e-06
6.1052e-06
6.10562e-06
6.10614e-06
6.1068e-06
6.10758e-06
6.10863e-06
6.10984e-06
6.11127e-06
6.11397e-06
6.11676e-06
6.10055e-06
6.10065e-06
6.10026e-06
6.09947e-06
6.09912e-06
6.09886e-06
6.09853e-06
6.09816e-06
6.09787e-06
6.09766e-06
6.0975e-06
6.09739e-06
6.09732e-06
6.09729e-06
6.09728e-06
6.09729e-06
6.09732e-06
6.09737e-06
6.09743e-06
6.09752e-06
6.09763e-06
6.09777e-06
6.09794e-06
6.09814e-06
6.09836e-06
6.09857e-06
6.09881e-06
6.09906e-06
6.09933e-06
6.09962e-06
6.09991e-06
6.10022e-06
6.10052e-06
6.10082e-06
6.1011e-06
6.10136e-06
6.10156e-06
6.10162e-06
6.10187e-06
6.10025e-06
6.10011e-06
6.10005e-06
6.10027e-06
6.10047e-06
6.1007e-06
6.10098e-06
6.10124e-06
6.1015e-06
6.10175e-06
6.10198e-06
6.1022e-06
6.1024e-06
6.10259e-06
6.10276e-06
6.10293e-06
6.10309e-06
6.10324e-06
6.10339e-06
6.10353e-06
6.10367e-06
6.10381e-06
6.10395e-06
6.10408e-06
6.10422e-06
6.10437e-06
6.10454e-06
6.10475e-06
6.105e-06
6.10531e-06
6.1057e-06
6.10618e-06
6.10678e-06
6.10752e-06
6.10844e-06
6.10959e-06
6.11111e-06
6.11254e-06
6.11687e-06
6.10036e-06
6.10045e-06
6.10008e-06
6.09932e-06
6.09894e-06
6.09865e-06
6.0983e-06
6.09794e-06
6.09765e-06
6.09745e-06
6.09729e-06
6.09718e-06
6.09712e-06
6.09709e-06
6.09709e-06
6.0971e-06
6.09713e-06
6.09717e-06
6.09723e-06
6.09731e-06
6.09741e-06
6.09754e-06
6.09771e-06
6.09789e-06
6.0981e-06
6.09831e-06
6.09853e-06
6.09877e-06
6.09904e-06
6.09932e-06
6.09962e-06
6.09992e-06
6.10023e-06
6.10054e-06
6.10085e-06
6.10112e-06
6.10137e-06
6.10144e-06
6.10174e-06
6.10011e-06
6.1e-06
6.09998e-06
6.10022e-06
6.10044e-06
6.10069e-06
6.10098e-06
6.10126e-06
6.10153e-06
6.10179e-06
6.10203e-06
6.10226e-06
6.10247e-06
6.10267e-06
6.10285e-06
6.10303e-06
6.1032e-06
6.10336e-06
6.10352e-06
6.10368e-06
6.10383e-06
6.10397e-06
6.10412e-06
6.10427e-06
6.10441e-06
6.10456e-06
6.10473e-06
6.10493e-06
6.10517e-06
6.10546e-06
6.10581e-06
6.10625e-06
6.10681e-06
6.10748e-06
6.10835e-06
6.10935e-06
6.11098e-06
6.11178e-06
6.11607e-06
6.10018e-06
6.10025e-06
6.09989e-06
6.09915e-06
6.09874e-06
6.09843e-06
6.09807e-06
6.09771e-06
6.09742e-06
6.09722e-06
6.09707e-06
6.09697e-06
6.09692e-06
6.09689e-06
6.09688e-06
6.09689e-06
6.09692e-06
6.09696e-06
6.09702e-06
6.09709e-06
6.09719e-06
6.09731e-06
6.09746e-06
6.09764e-06
6.09783e-06
6.09803e-06
6.09824e-06
6.09847e-06
6.09873e-06
6.099e-06
6.0993e-06
6.0996e-06
6.09992e-06
6.10024e-06
6.10056e-06
6.10085e-06
6.10114e-06
6.10125e-06
6.10162e-06
6.09997e-06
6.09989e-06
6.0999e-06
6.10017e-06
6.10041e-06
6.10068e-06
6.10098e-06
6.10127e-06
6.10155e-06
6.10183e-06
6.10208e-06
6.10231e-06
6.10254e-06
6.10275e-06
6.10294e-06
6.10313e-06
6.10331e-06
6.10348e-06
6.10365e-06
6.10382e-06
6.10398e-06
6.10414e-06
6.10429e-06
6.10445e-06
6.1046e-06
6.10475e-06
6.10492e-06
6.10511e-06
6.10534e-06
6.10562e-06
6.10595e-06
6.10636e-06
6.10687e-06
6.10749e-06
6.10831e-06
6.10919e-06
6.1108e-06
6.11141e-06
6.11527e-06
6.10001e-06
6.10005e-06
6.0997e-06
6.09897e-06
6.09854e-06
6.0982e-06
6.09783e-06
6.09747e-06
6.09719e-06
6.09699e-06
6.09684e-06
6.09675e-06
6.09669e-06
6.09666e-06
6.09666e-06
6.09667e-06
6.0967e-06
6.09674e-06
6.09679e-06
6.09686e-06
6.09694e-06
6.09706e-06
6.0972e-06
6.09736e-06
6.09754e-06
6.09773e-06