/*--------------------------------*- C++ -*----------------------------------*\
| =========                 |                                                 |
| \\      /  F ield         | OpenFOAM: The Open Source CFD Toolbox           |
|  \\    /   O peration     | Version:  2312                                  |
|   \\  /    A nd           | Website:  www.openfoam.com                      |
|    \\/     M anipulation  |                                                 |
\*---------------------------------------------------------------------------*/
FoamFile
{
    version     2.0;
    format      ascii;
    arch        "LSB;label=32;scalar=64";
    class       volSymmTensorField;
    location    "350";
    object      turbulenceProperties:devReff;
}
// * * * * * * * * * * * * * * * * * * * * * * * * * * * * * * * * * * * * * //

dimensions      [0 2 -2 0 0 0 0];

internalField   nonuniform List<symmTensor> 
10720
(
(0.0016372 0.00425805 -1.66523e-21 -0.0017738 -6.22791e-20 0.000136601)
(0.00238863 0.00488032 1.07159e-21 -0.00248657 6.81641e-20 9.79458e-05)
(0.00361122 0.00546095 1.60037e-20 -0.00380846 6.76715e-20 0.000197236)
(0.00524618 0.00621524 7.50524e-20 -0.00549217 6.12571e-19 0.000245993)
(0.00742529 0.00687379 -3.04676e-19 -0.00769394 -1.22065e-18 0.000268657)
(0.0104045 0.00726228 -3.6158e-19 -0.0107959 -7.37014e-19 0.000391462)
(0.0142997 0.00737499 1.27674e-19 -0.014786 1.23382e-20 0.00048628)
(0.0191885 0.00685941 6.94197e-20 -0.0197711 1.09765e-19 0.000582612)
(0.0252402 0.00535185 1.80822e-19 -0.0259868 -1.46061e-19 0.000746596)
(0.0325659 0.0026064 -2.77735e-20 -0.0334663 -2.78649e-20 0.000900493)
(0.0413439 -0.001898 3.18777e-18 -0.0424354 1.2852e-18 0.00109153)
(0.0519617 -0.00873425 -7.59321e-19 -0.0532796 -5.83183e-19 0.00131787)
(0.0649603 -0.0188225 1.53579e-18 -0.0665536 -2.30584e-18 0.00159324)
(0.0812502 -0.0337504 7.4916e-19 -0.0832051 1.60741e-18 0.00195489)
(0.102372 -0.056171 1.17579e-18 -0.104838 -2.08457e-18 0.00246634)
(0.130536 -0.0904077 4.81463e-19 -0.13371 7.33994e-18 0.00317465)
(0.16989 -0.145066 3.69821e-17 -0.174197 1.9691e-17 0.00430682)
(0.224292 -0.232436 -1.03636e-17 -0.230173 1.39416e-17 0.00588068)
(0.310954 -0.38891 -4.15191e-18 -0.31957 -6.73901e-17 0.00861562)
(0.426468 -0.641774 2.22436e-18 -0.438643 -4.33925e-19 0.012175)
(0.666907 -1.21435 -6.5964e-17 -0.686305 -8.97417e-17 0.0193974)
(0.94556 -2.11443 1.57405e-16 -0.971675 4.77271e-16 0.0261146)
(1.76589 -5.12956 -2.5741e-16 -1.81805 -9.3188e-16 0.0521618)
(2.42842 -10.3117 4.53153e-16 -2.51192 1.24297e-16 0.0835005)
(1.52839 -11.6473 -2.48634e-16 -1.56961 -1.19299e-17 0.0412214)
(0.52673 -11.229 2.09903e-17 -0.515357 -1.28069e-15 -0.0113734)
(-0.145615 -11.0446 2.70143e-16 0.175446 -6.42716e-17 -0.0298313)
(-0.664835 -11.2272 1.95559e-16 0.689665 4.1253e-16 -0.0248295)
(-1.1362 -11.4408 1.14976e-15 1.15267 5.6023e-16 -0.0164701)
(-1.57163 -11.4536 1.04799e-15 1.58 4.51122e-15 -0.00837024)
(-1.95776 -11.2394 -2.01191e-15 1.95605 -1.7398e-15 0.00170392)
(-2.27346 -10.8333 -2.17659e-15 2.26298 -3.02275e-15 0.0104732)
(-2.49348 -10.22 -9.24825e-16 2.47855 -3.97088e-15 0.0149341)
(-2.60501 -9.41335 -2.96447e-15 2.58964 -5.58173e-15 0.0153711)
(-2.58913 -8.40521 1.07417e-15 2.57492 2.92196e-15 0.0142054)
(-2.43519 -7.22661 1.80066e-16 2.42417 2.16259e-15 0.0110166)
(-2.07388 -5.67301 -4.60169e-17 2.06043 3.65115e-18 0.0134439)
(-1.58642 -4.17125 -1.78664e-15 1.58471 -1.07478e-16 0.00171496)
(-0.472512 -0.926518 -3.59699e-16 0.473301 -1.68916e-15 -0.00078911)
(0.000968074 0.00371324 1.24935e-21 -0.00101996 -4.47058e-21 5.18882e-05)
(0.000549689 0.00319733 -6.73394e-21 -0.000639719 6.83933e-21 9.00308e-05)
(0.000179284 0.00261125 -3.69096e-20 -0.000226353 -2.56702e-20 4.70696e-05)
(-6.71186e-05 0.00208983 3.82678e-20 3.29887e-05 -5.46546e-20 3.41299e-05)
(-0.000179308 0.00159699 -4.70812e-20 0.00016102 -4.67941e-20 1.82887e-05)
(-0.000172658 0.00116726 -2.41161e-19 0.000173051 2.92844e-19 -3.93638e-07)
(-8.4058e-05 0.000835349 8.155e-20 0.000108163 2.73126e-19 -2.4105e-05)
(5.47423e-05 0.00063695 -4.33563e-20 -1.70427e-05 -3.89629e-19 -3.76997e-05)
(0.000231317 0.000621222 2.00696e-19 -0.000204919 4.91645e-21 -2.63983e-05)
(0.000471263 0.000742199 -1.48201e-19 -0.000467971 -4.26227e-20 -3.29205e-06)
(0.000812309 0.00102674 1.27501e-19 -0.000822953 3.0737e-19 1.06437e-05)
(0.00130635 0.00156633 2.60635e-19 -0.00132433 -1.22026e-19 1.79823e-05)
(0.00202416 0.00252553 -2.59421e-19 -0.00205433 -7.47384e-20 3.01682e-05)
(0.00305548 0.00413694 1.60538e-20 -0.00310677 1.13867e-19 5.12974e-05)
(0.00447286 0.00664432 9.41234e-19 -0.0045478 2.00136e-19 7.49379e-05)
(0.00629894 0.0103373 9.02017e-19 -0.00640764 -1.90434e-19 0.0001087)
(0.00863877 0.0156344 4.08404e-19 -0.00878452 6.36831e-19 0.000145749)
(0.0117397 0.0234237 2.96107e-19 -0.0119378 6.29259e-19 0.000198167)
(0.0161475 0.0354488 3.13218e-19 -0.0164159 -1.76927e-19 0.000268362)
(0.0226875 0.0549967 5.91168e-19 -0.023078 2.58792e-20 0.000390527)
(0.0329394 0.0886134 -8.89068e-19 -0.0335303 -5.39258e-18 0.000590903)
(0.0490708 0.148522 -3.12969e-18 -0.0500501 -1.03059e-19 0.000979368)
(0.0757007 0.263741 2.96785e-18 -0.0774785 5.23876e-18 0.00177774)
(0.116277 0.487749 2.14032e-18 -0.119913 -5.65656e-19 0.00363647)
(0.183234 0.979403 7.47106e-17 -0.191079 -1.51611e-17 0.0078459)
(0.277931 2.01754 -1.11738e-18 -0.294305 -1.16258e-17 0.0163743)
(0.410032 4.53249 1.98084e-19 -0.448505 7.30077e-18 0.038473)
(0.421152 9.36871 2.27271e-18 -0.501458 -6.98227e-20 0.0803054)
(0.00812323 13.2917 3.31353e-19 -0.112265 4.48738e-21 0.104142)
(-0.628741 14.9596 3.64889e-16 0.53041 5.08945e-18 0.0983312)
(-1.26784 15.3985 -4.20035e-18 1.1856 -2.17051e-19 0.0822438)
(-1.85321 15.4183 -2.64543e-17 1.78587 3.60764e-17 0.0673381)
(-2.37737 15.2562 -2.24308e-15 2.32158 -1.86766e-16 0.0557947)
(-2.83314 14.9561 -4.0251e-15 2.78624 -2.5897e-16 0.0469017)
(-3.21853 14.5339 3.58623e-15 3.17821 3.91328e-16 0.0403268)
(-3.53763 14.0108 -2.69046e-17 3.50236 1.37033e-16 0.0352632)
(-3.7753 13.2877 1.3609e-18 3.74321 -5.2734e-16 0.0320889)
(-3.91952 12.4705 -1.93948e-16 3.88953 2.8294e-16 0.0299976)
(-3.64017 10.0664 -3.51064e-15 3.63356 1.25549e-16 0.00661072)
(0.000579436 -0.00046054 -4.14406e-21 -0.000520051 -1.26836e-20 -5.93849e-05)
(0.000492607 -0.000547367 7.54294e-21 -0.000425489 1.7078e-20 -6.71181e-05)
(0.000371415 -0.00062296 -3.37181e-22 -0.000291094 4.84708e-23 -8.03211e-05)
(0.000250517 -0.000652188 1.57199e-20 -0.000158586 2.33508e-21 -9.19314e-05)
(0.000133146 -0.000645118 1.07479e-20 -3.25511e-05 9.34053e-20 -0.000100595)
(2.31373e-05 -0.000610492 7.12157e-20 8.61863e-05 1.24531e-19 -0.000109324)
(-6.02937e-05 -0.000551408 -3.56522e-20 0.000177204 5.74109e-21 -0.00011691)
(-0.000116639 -0.000479011 -3.00495e-20 0.000238477 -7.88971e-21 -0.000121838)
(-0.000149305 -0.00040478 -1.6912e-19 0.000274586 -1.86824e-19 -0.000125281)
(-0.000158013 -0.000336004 -5.64487e-20 0.000285263 -1.85956e-20 -0.00012725)
(-0.000150113 -0.000278309 -4.89685e-19 0.000277011 -4.78323e-19 -0.000126898)
(-0.000132662 -0.000239955 -5.85712e-21 0.000258891 8.03443e-20 -0.00012623)
(-0.000110887 -0.000226129 -2.60715e-19 0.000240757 7.69628e-21 -0.00012987)
(-8.62502e-05 -0.000245808 1.93978e-19 0.00023112 1.15285e-19 -0.000144869)
(-4.8534e-05 -0.000344673 -5.27985e-19 0.000241488 -1.53956e-19 -0.000192954)
(6.25458e-05 -0.000658712 1.92856e-18 0.000258277 4.67436e-19 -0.000320822)
(0.000455557 -0.00154901 -3.34869e-18 0.000142036 -2.91047e-18 -0.000597593)
(0.00150317 -0.00355107 -5.74639e-18 -0.00049978 -2.32837e-18 -0.00100339)
(0.00420967 -0.00868456 -1.1931e-17 -0.00254038 5.03218e-18 -0.00166929)
(0.0104964 -0.0211777 2.34484e-18 -0.00791023 -2.05378e-20 -0.0025862)
(0.0294712 -0.0625025 2.18517e-17 -0.025064 3.22431e-17 -0.00440718)
(0.0738487 -0.174162 -4.15458e-17 -0.0676519 -1.26509e-16 -0.00619679)
(0.19422 -0.542736 -2.20712e-18 -0.186468 2.26478e-16 -0.00775219)
(0.503327 -1.77947 5.20721e-18 -0.500567 -8.72181e-17 -0.00276004)
(0.748991 -3.54597 -0 -0.77265 -0 0.0236586)
(0.790662 -5.39886 -2.56346e-17 -0.844934 6.08624e-16 0.0542713)
(0.604035 -7.15454 -6.82581e-17 -0.675835 4.69405e-17 0.0718003)
(0.204223 -8.39761 -1.1073e-16 -0.279786 -4.76137e-16 0.0755633)
(-0.295907 -8.63806 -9.74263e-16 0.22985 -2.62926e-15 0.066056)
(-0.707425 -7.8985 3.87898e-16 0.666164 -8.29732e-15 0.0412606)
(-0.931438 -6.69242 -1.09071e-16 0.923024 5.63962e-15 0.00841447)
(-0.998381 -5.47831 -3.38878e-16 1.01654 7.39175e-15 -0.0181544)
(-0.98448 -4.49854 -2.19872e-15 1.01426 4.27091e-15 -0.0297829)
(-0.930909 -3.75377 6.48176e-15 0.960539 1.54345e-14 -0.0296299)
(-0.863902 -3.18666 -4.13476e-16 0.887905 -2.76582e-15 -0.0240034)
(-0.781641 -2.74369 6.23888e-15 0.802123 -3.67487e-15 -0.0204821)
(-0.730921 -2.43245 -2.2404e-16 0.744291 4.92644e-17 -0.0133705)
(-0.560379 -2.13714 3.1746e-15 0.595673 7.05178e-16 -0.0352939)
(-0.787369 -2.25534 5.72189e-15 0.698394 6.56136e-15 0.0889751)
(0.000645661 -0.000345021 4.77937e-21 -0.00059543 1.56426e-20 -5.02303e-05)
(0.000684428 -0.000224623 -3.06754e-21 -0.000637476 -6.55501e-20 -4.69524e-05)
(0.000691703 -7.64041e-05 -4.11793e-20 -0.000654671 -1.37252e-19 -3.70326e-05)
(0.00065426 8.66734e-05 7.57512e-21 -0.000627673 1.94425e-19 -2.65865e-05)
(0.000565091 0.000235296 8.96688e-20 -0.000550967 -8.44946e-20 -1.41237e-05)
(0.000429289 0.000348906 -2.54444e-20 -0.00042563 -1.38468e-19 -3.65904e-06)
(0.000271237 0.000405981 1.37692e-19 -0.000274649 -2.98129e-19 3.41285e-06)
(0.000131127 0.000406961 -2.33452e-19 -0.000140199 -3.16368e-20 9.07225e-06)
(2.28784e-05 0.000374121 -1.28309e-19 -3.33885e-05 2.91659e-19 1.05101e-05)
(-6.63103e-05 0.000316366 -3.9107e-20 6.00839e-05 -1.49439e-20 6.2264e-06)
(-0.000121765 0.000243634 -6.44744e-20 0.000123183 -1.47648e-19 -1.41872e-06)
(-0.000141756 0.000176676 1.34083e-20 0.000150078 -7.8659e-20 -8.32183e-06)
(-0.000139971 0.0001244 5.41084e-20 0.000152777 1.3894e-19 -1.28061e-05)
(-0.00012757 8.66303e-05 -4.75613e-20 0.000142839 -3.23781e-20 -1.52685e-05)
(-0.000111045 6.08907e-05 -2.77636e-20 0.000127503 -9.94372e-20 -1.64577e-05)
(-9.41918e-05 4.40028e-05 -9.91294e-20 0.000110952 -3.02691e-20 -1.676e-05)
(-7.86836e-05 3.33875e-05 -1.7636e-20 9.51011e-05 -2.31129e-22 -1.64176e-05)
(-6.53916e-05 2.68721e-05 -1.13698e-21 8.10457e-05 -1.0237e-20 -1.56541e-05)
(-5.43351e-05 2.27326e-05 -1.13178e-20 6.89943e-05 8.15305e-21 -1.46592e-05)
(-4.52864e-05 1.99634e-05 1.9722e-20 5.89194e-05 -6.73701e-21 -1.3633e-05)
(-3.7998e-05 1.79318e-05 -1.19577e-19 5.07312e-05 8.84948e-20 -1.27332e-05)
(-3.26728e-05 1.64684e-05 -2.54632e-20 4.49203e-05 5.2771e-21 -1.22475e-05)
(-2.91898e-05 1.55177e-05 -9.33055e-22 4.16894e-05 -2.38776e-20 -1.24996e-05)
(-2.68699e-05 1.54949e-05 1.1335e-19 4.05157e-05 6.29099e-21 -1.36457e-05)
(-2.46033e-05 1.7262e-05 -9.84247e-20 3.96875e-05 8.41953e-21 -1.50842e-05)
(-0.00023529 0.000213476 -9.61497e-19 0.000404577 2.11447e-19 -0.000169287)
(-0.00119738 0.00135669 -8.18063e-20 0.00216756 -1.23816e-19 -0.000970186)
(-0.00866834 0.0119928 -6.57632e-21 0.0162495 -3.4408e-19 -0.00758118)
(-0.026226 0.045928 -4.97884e-20 0.0499575 -6.76538e-22 -0.0237315)
(-0.0449434 0.102711 2.70965e-18 0.0849972 2.25542e-18 -0.0400539)
(-0.0579715 0.170672 1.84628e-19 0.105296 -1.00705e-18 -0.0473247)
(-0.0659763 0.235235 4.71338e-18 0.111229 -1.75264e-17 -0.0452532)
(-0.0730158 0.289374 2.45571e-15 0.112018 1.76547e-16 -0.0390024)
(-0.0819856 0.334931 2.30271e-15 0.114738 1.24257e-16 -0.0327528)
(-0.0941513 0.375368 -2.1385e-15 0.122122 -2.52208e-16 -0.0279711)
(-0.108447 0.415557 2.07408e-15 0.133603 2.72142e-16 -0.0251553)
(-0.128783 0.456179 -3.67755e-15 0.151571 -5.42845e-16 -0.0227882)
(-0.147319 0.552309 -3.42316e-15 0.174166 -7.47136e-16 -0.0268469)
(-0.207648 0.775742 -3.41902e-15 0.197449 -1.03687e-16 0.0101991)
(0.00033368 -0.000312817 -1.56782e-21 -0.000360069 -5.64959e-21 2.63892e-05)
(0.000258357 -0.000372291 -3.36531e-20 -0.000290233 -7.93593e-20 3.18765e-05)
(0.000160845 -0.000413568 2.47497e-20 -0.000197973 5.9164e-20 3.7128e-05)
(5.20632e-05 -0.00042637 3.41404e-20 -9.69384e-05 6.46359e-20 4.48752e-05)
(-5.44346e-05 -0.000413084 6.17183e-20 3.55257e-06 8.91487e-20 5.0882e-05)
(-0.000154793 -0.000372462 -1.89344e-19 9.7916e-05 -3.31402e-19 5.68775e-05)
(-0.000238956 -0.000308492 1.32592e-19 0.000175443 2.66142e-19 6.35132e-05)
(-0.000300011 -0.000230745 1.76489e-19 0.000231141 1.57478e-19 6.88693e-05)
(-0.000337776 -0.000145419 -1.01096e-20 0.000264313 2.12885e-20 7.3463e-05)
(-0.000352975 -6.11056e-05 1.06895e-19 0.000275463 1.90571e-19 7.75121e-05)
(-0.000348668 1.65947e-05 -2.31348e-19 0.000268543 -1.09457e-20 8.01246e-05)
(-0.000331388 8.39197e-05 3.14176e-19 0.000250352 3.48616e-19 8.10356e-05)
(-0.000307337 0.000139297 1.47742e-19 0.000227523 6.06695e-20 7.98137e-05)
(-0.000281411 0.00018489 7.38784e-20 0.000204178 -7.05612e-20 7.72332e-05)
(-0.000253955 0.00021868 2.11371e-19 0.000181509 2.08853e-19 7.24459e-05)
(-0.000223929 0.000237718 -5.20921e-19 0.000158983 -5.31271e-19 6.49463e-05)
(-0.000181835 0.000230201 1.17681e-19 0.000129372 1.72104e-19 5.24629e-05)
(-0.000152719 0.000223754 9.30762e-19 0.000110237 2.73047e-19 4.24816e-05)
(-0.000100149 0.000165367 2.09376e-19 7.43313e-05 1.54182e-19 2.58175e-05)
(-0.000912773 0.0016451 -6.72392e-19 0.000706058 -4.67399e-20 0.000206715)
(-0.00186638 0.00357543 1.86758e-18 0.00151986 -4.12188e-18 0.000346515)
(-0.000888623 0.00175621 2.44565e-19 0.000772723 2.1088e-18 0.0001159)
(-0.000309659 0.000353652 6.57346e-18 0.00033093 -1.35121e-18 -2.12706e-05)
(0.00236047 -0.00878919 -1.06666e-17 -0.00190262 -4.45023e-18 -0.000457844)
(0.0133767 -0.0591629 2.63485e-19 -0.0113704 6.68154e-19 -0.00200632)
(0.0324062 -0.194734 -5.76649e-17 -0.0282166 1.64845e-17 -0.00418959)
(0.0532597 -0.491585 2.00723e-17 -0.0472464 8.29464e-18 -0.0060133)
(0.0636444 -1.11038 -2.55048e-17 -0.0564594 -2.11123e-18 -0.00718497)
(0.0252742 -2.20112 -6.35609e-16 -0.0184913 6.49389e-16 -0.00678287)
(-0.120045 -3.63421 -1.08421e-15 0.123208 3.35192e-17 -0.00316307)
(-0.387502 -4.91706 3.90453e-15 0.382257 -1.15018e-15 0.00524462)
(-0.692089 -5.52602 3.18512e-15 0.677621 1.73713e-15 0.0144681)
(-0.905802 -5.36844 -1.54722e-16 0.89003 4.30062e-15 0.0157717)
(-0.983313 -4.78804 6.63755e-15 0.974897 -5.04442e-15 0.00841619)
(-0.965049 -4.12896 5.1602e-15 0.963566 -2.92477e-15 0.00148281)
(-0.878658 -3.5243 -9.57982e-15 0.881632 -3.5508e-15 -0.00297379)
(-0.798718 -3.05393 -2.70077e-17 0.797794 -1.68917e-15 0.000923625)
(-0.531544 -2.55678 6.26833e-15 0.547631 -1.58449e-15 -0.0160873)
(-0.844067 -2.81498 -1.30985e-14 0.826065 4.22416e-15 0.0180021)
(0.000395295 -0.000236813 -7.38049e-21 -0.000419383 -1.78438e-20 2.40876e-05)
(0.000435598 -0.000154361 -6.1364e-21 -0.00045497 -6.72996e-21 1.93724e-05)
(0.000460052 -5.32871e-05 5.5379e-20 -0.000474978 9.6972e-20 1.49267e-05)
(0.000454768 5.43735e-05 -3.34276e-20 -0.000464212 -1.63534e-21 9.44395e-06)
(0.000415694 0.000160464 7.97053e-21 -0.000421159 4.1798e-20 5.46477e-06)
(0.000342133 0.000248048 -1.30386e-20 -0.000344114 1.32271e-19 1.98136e-06)
(0.000244206 0.00030301 -3.00896e-20 -0.000243899 1.253e-19 -3.0675e-07)
(0.000141067 0.00031991 3.513e-19 -0.000141814 2.5357e-19 7.46213e-07)
(4.81424e-05 0.000309276 5.24145e-20 -4.96036e-05 -6.88526e-20 1.46111e-06)
(-2.83396e-05 0.000273939 1.87379e-19 2.72842e-05 2.44844e-20 1.05543e-06)
(-7.85687e-05 0.000221406 -1.45794e-19 7.72396e-05 -9.78901e-20 1.32904e-06)
(-0.00010266 0.000166973 -1.05124e-19 0.000100154 1.61363e-19 2.50561e-06)
(-0.000108699 0.00011937 1.13134e-19 0.000104635 -5.72641e-20 4.06384e-06)
(-0.000104074 8.10094e-05 9.28441e-20 9.83172e-05 -3.39078e-22 5.75686e-06)
(-9.40462e-05 5.20567e-05 -6.68118e-20 8.6872e-05 6.44459e-20 7.17419e-06)
(-8.20407e-05 3.10447e-05 -4.81027e-20 7.36773e-05 1.16097e-19 8.36337e-06)
(-7.02298e-05 1.64129e-05 1.1634e-19 6.10102e-05 -7.13088e-20 9.21969e-06)
(-5.97415e-05 6.31584e-06 1.07998e-19 4.98997e-05 -1.97228e-20 9.84181e-06)
(-5.10637e-05 -7.61563e-07 4.22384e-20 4.08728e-05 -3.7448e-21 1.01909e-05)
(-4.39383e-05 -6.08712e-06 -1.42368e-20 3.3494e-05 5.26835e-20 1.04443e-05)
(-3.80785e-05 -1.04075e-05 1.99675e-19 2.74938e-05 2.4686e-20 1.05847e-05)
(-3.29301e-05 -1.44529e-05 7.9154e-21 2.21567e-05 -3.6712e-20 1.07734e-05)
(-2.77606e-05 -1.8672e-05 -6.3173e-22 1.66906e-05 -2.35945e-21 1.10699e-05)
(-2.10898e-05 -2.26157e-05 -4.34474e-21 9.2367e-06 -2.54007e-20 1.18531e-05)
(-1.29587e-05 -2.48037e-05 -3.55543e-21 -2.33784e-07 1.87005e-20 1.31925e-05)
(-4.80958e-06 -2.40849e-05 3.09805e-19 -9.43684e-06 -1.59145e-20 1.42464e-05)
(2.16905e-06 -2.25524e-05 8.2722e-22 -1.80218e-05 -2.38422e-23 1.58527e-05)
(5.47516e-06 -1.38328e-05 -2.36726e-20 -1.76535e-05 1.32772e-21 1.21784e-05)
(5.62261e-05 -7.33697e-05 -1.1483e-21 -0.00014365 -1.76451e-22 8.74237e-05)
(0.000480976 -0.000275636 -2.55352e-18 -0.00111247 -9.52891e-20 0.00063149)
(0.00145026 0.000425455 1.76614e-17 -0.00322058 7.84166e-19 0.00177032)
(0.00231352 0.00468853 -2.396e-19 -0.00521476 -1.32883e-20 0.00290124)
(0.00185829 0.0154463 -2.73253e-16 -0.00506973 -1.27764e-17 0.00321144)
(-0.000686635 0.0342895 -3.14347e-19 -0.00190469 9.44423e-18 0.00259133)
(-0.00552523 0.0608563 -1.193e-18 0.00397945 8.15578e-18 0.00154579)
(-0.0113262 0.0929735 3.53981e-17 0.0108228 -1.03018e-16 0.000503416)
(-0.0190692 0.127603 -1.72782e-16 0.0190198 7.10649e-16 4.9356e-05)
(-0.00964159 0.1541 2.1866e-15 0.0104726 8.14294e-16 -0.00083105)
(-0.0374643 0.2612 4.48629e-15 0.0294827 1.75799e-15 0.00798161)
(0.000306281 -0.000258231 -6.67654e-21 -0.000296877 -1.2478e-20 -9.40459e-06)
(0.000259299 -0.00030609 -1.45499e-20 -0.000248912 -2.33139e-20 -1.0387e-05)
(0.00019591 -0.000347417 2.78038e-20 -0.000182637 4.23009e-20 -1.32732e-05)
(0.000125023 -0.000374219 3.91402e-20 -0.000109144 3.80668e-20 -1.58788e-05)
(5.17719e-05 -0.000382641 4.42363e-21 -3.28907e-05 -1.9208e-21 -1.88812e-05)
(-2.12968e-05 -0.000372949 -1.50106e-20 4.36737e-05 3.69053e-20 -2.23769e-05)
(-8.66787e-05 -0.000347089 2.84989e-19 0.000112595 2.85545e-19 -2.5916e-05)
(-0.000139543 -0.000308088 -2.66772e-19 0.000168999 -3.54238e-19 -2.94558e-05)
(-0.00017842 -0.000260565 7.45469e-20 0.000211685 1.92724e-20 -3.32656e-05)
(-0.000202008 -0.000209914 3.51843e-19 0.000238698 2.60644e-19 -3.66904e-05)
(-0.000211577 -0.000160038 2.76264e-19 0.000251489 2.80581e-19 -3.99116e-05)
(-0.000209294 -0.000114101 2.98956e-19 0.000251824 8.59043e-20 -4.25298e-05)
(-0.00019773 -7.42121e-05 -3.32358e-19 0.000241976 -2.52023e-19 -4.42457e-05)
(-0.000179869 -4.12315e-05 -2.07615e-19 0.000224689 -2.08275e-19 -4.48199e-05)
(-0.000157731 -1.50493e-05 2.27367e-20 0.0002022 -6.94546e-20 -4.44696e-05)
(-0.000133126 7.4756e-06 -5.03192e-19 0.000175297 3.54227e-20 -4.21707e-05)
(-0.000107615 2.66332e-05 -1.37695e-19 0.000145763 -1.745e-19 -3.81478e-05)
(-8.45545e-05 4.2914e-05 -7.71783e-19 0.000117519 -6.00224e-19 -3.2964e-05)
(-6.1675e-05 5.43904e-05 7.41765e-20 8.6572e-05 -9.98219e-20 -2.4897e-05)
(-4.27254e-05 5.8181e-05 2.68042e-20 5.86098e-05 -6.11432e-20 -1.58844e-05)
(-3.8087e-05 7.09067e-05 -2.56394e-19 4.90575e-05 -3.0398e-21 -1.09705e-05)
(-7.16287e-05 0.00016658 7.50709e-20 8.61819e-05 1.66032e-20 -1.45532e-05)
(-0.000155381 0.000466416 -8.86802e-19 0.000180547 -1.80478e-19 -2.5166e-05)
(-0.000526449 0.0023958 -1.43569e-18 0.000628065 1.54117e-18 -0.000101616)
(-0.000663947 0.00715608 1.18992e-18 0.000967763 8.0634e-20 -0.000303816)
(0.000527641 0.0132859 1.07672e-17 8.3395e-05 5.743e-18 -0.000611036)
(0.000534272 0.00277124 -3.00194e-19 -0.00038274 1.24034e-19 -0.000151532)
(0.00172308 0.00237153 1.04792e-18 -0.00144228 6.64628e-20 -0.000280803)
(0.00477117 -0.0115928 4.07407e-17 -0.00420517 2.48148e-18 -0.000566002)
(0.00995701 -0.10823 -9.89347e-18 -0.00871631 1.20917e-16 -0.0012407)
(-0.000324848 -0.477579 -5.3172e-16 0.00252253 -5.24697e-16 -0.00219768)
(-0.0767901 -1.29896 1.98875e-15 0.0795014 -1.86533e-15 -0.00271138)
(-0.26364 -2.4248 2.17788e-15 0.264515 -2.12359e-16 -0.000874994)
(-0.514344 -3.34513 -3.84952e-16 0.510925 -7.24258e-15 0.00341892)
(-0.715715 -3.72346 -5.82448e-15 0.709753 -1.76379e-15 0.0059626)
(-0.793026 -3.65117 6.99855e-16 0.79049 3.66445e-15 0.00253562)
(-0.801384 -3.42126 -9.96677e-15 0.796699 1.47841e-15 0.00468487)
(-0.573957 -3.0199 -6.9887e-15 0.584307 8.73465e-16 -0.01035)
(-0.814809 -3.21302 8.11064e-15 0.786469 -4.94788e-15 0.0283392)
(0.000342227 -0.000198505 -3.61101e-21 -0.000335901 -3.70304e-21 -6.32558e-06)
(0.000364718 -0.000135336 1.28817e-20 -0.000359231 5.89865e-20 -5.48622e-06)
(0.000373317 -5.72517e-05 3.8239e-20 -0.000370626 8.49244e-20 -2.69059e-06)
(0.000363935 2.51504e-05 4.12121e-20 -0.000362615 -2.0133e-20 -1.3204e-06)
(0.000332418 0.000105539 -8.18485e-20 -0.000332519 -7.02834e-20 1.01882e-07)
(0.000278556 0.000174403 -9.03036e-21 -0.000278836 -1.00531e-19 2.79953e-07)
(0.00020888 0.000222873 -1.25569e-19 -0.000208624 -1.28907e-19 -2.56198e-07)
(0.000134097 0.000246333 -1.98242e-19 -0.000134127 -7.31436e-21 2.97829e-08)
(6.2088e-05 0.000246784 -5.70166e-20 -6.28927e-05 -3.14897e-20 8.04697e-07)
(-4.77636e-07 0.000226459 6.17272e-20 -6.65517e-07 -4.32122e-20 1.14315e-06)
(-4.6012e-05 0.000192087 6.11225e-20 4.50201e-05 1.40241e-19 9.91894e-07)
(-7.36452e-05 0.00015353 1.15068e-19 7.31306e-05 -4.46348e-20 5.1458e-07)
(-8.69231e-05 0.000117335 -9.83255e-20 8.71747e-05 -1.12761e-19 -2.51666e-07)
(-9.02495e-05 8.63954e-05 -1.85749e-20 9.13689e-05 4.19352e-20 -1.1194e-06)
(-8.73194e-05 6.17606e-05 8.96034e-20 8.93385e-05 -1.95322e-20 -2.01916e-06)
(-8.10779e-05 4.30078e-05 1.96677e-19 8.39015e-05 -1.40376e-20 -2.82363e-06)
(-7.35837e-05 2.93016e-05 -1.23429e-19 7.71377e-05 -3.5345e-20 -3.55397e-06)
(-6.61114e-05 1.94562e-05 -3.74824e-20 7.02676e-05 -5.46993e-20 -4.15621e-06)
(-5.93565e-05 1.23047e-05 -1.74883e-20 6.40058e-05 9.69353e-21 -4.64925e-06)
(-5.34506e-05 6.7952e-06 1.8272e-19 5.84361e-05 -7.21949e-20 -4.98546e-06)
(-4.83438e-05 2.25012e-06 3.2996e-20 5.3592e-05 -4.8332e-20 -5.24819e-06)
(-4.376e-05 -1.90773e-06 -1.77869e-19 4.92024e-05 5.22131e-20 -5.44243e-06)
(-3.92323e-05 -6.02082e-06 -7.4423e-21 4.48497e-05 2.62703e-20 -5.61741e-06)
(-3.40474e-05 -9.84473e-06 -2.86282e-21 3.9779e-05 -1.75657e-20 -5.73166e-06)
(-2.84137e-05 -1.2248e-05 2.66913e-21 3.44235e-05 -2.18612e-22 -6.00979e-06)
(-2.34556e-05 -1.29978e-05 -1.36233e-19 3.00706e-05 -2.79761e-20 -6.61495e-06)
(-1.95445e-05 -1.28636e-05 -2.40899e-21 2.68442e-05 4.28384e-22 -7.29974e-06)
(-1.65194e-05 -1.23523e-05 2.92461e-20 2.44675e-05 7.75873e-22 -7.94807e-06)
(-1.36841e-05 -1.14349e-05 -1.04485e-21 2.188e-05 -2.50764e-23 -8.19584e-06)
(-1.0869e-05 -1.02007e-05 6.77235e-22 1.87097e-05 9.60534e-22 -7.8407e-06)
(-7.46556e-06 -8.18858e-06 -8.13121e-20 1.38361e-05 -2.92626e-21 -6.37058e-06)
(-4.21471e-06 -5.76287e-06 -2.18986e-21 8.62526e-06 -1.36066e-22 -4.41055e-06)
(-3.03826e-05 -5.74282e-05 3.84424e-21 7.74995e-05 -7.0307e-20 -4.71169e-05)
(-5.90713e-07 -4.59933e-05 1.72131e-17 0.000110412 1.55211e-18 -0.000109821)
(0.000235669 0.000599948 1.09609e-18 -0.000134622 1.22561e-19 -0.000101047)
(0.000881083 0.00333223 -1.87506e-16 -0.000938162 -3.54776e-17 5.70794e-05)
(0.00156924 0.0112025 1.24984e-15 -0.00204507 1.83486e-16 0.000475828)
(0.00671743 0.0279051 4.81283e-17 -0.00720639 -1.76518e-16 0.00048896)
(-0.00282894 0.104474 2.73059e-16 -0.00194857 -1.51798e-15 0.00477751)
(0.000222634 -0.000196134 -7.99903e-21 -0.000225649 -1.18893e-20 3.01588e-06)
(0.000184147 -0.00023163 -1.46002e-20 -0.000188507 -1.97226e-20 4.36015e-06)
(0.000134442 -0.000261253 4.9638e-20 -0.000139276 6.35971e-20 4.83451e-06)
(7.79956e-05 -0.000279191 -2.1174e-19 -8.41606e-05 -2.89671e-19 6.16497e-06)
(1.89281e-05 -0.000283323 5.25439e-20 -2.64774e-05 8.24282e-20 7.54929e-06)
(-4.04469e-05 -0.000273073 1.14582e-19 3.16165e-05 1.19124e-19 8.8304e-06)
(-9.48401e-05 -0.000249165 -9.77677e-20 8.42734e-05 -1.60267e-19 1.05667e-05)
(-0.000140352 -0.000213789 -6.5882e-20 0.000127934 1.139e-20 1.24187e-05)
(-0.000174745 -0.000169936 -3.93614e-19 0.000160482 -3.7231e-19 1.42634e-05)
(-0.000196685 -0.000121817 -5.50677e-20 0.000180323 -1.48662e-19 1.63612e-05)
(-0.000206284 -7.28673e-05 1.08141e-20 0.000187828 -3.4894e-20 1.84554e-05)
(-0.000204708 -2.6261e-05 -1.97004e-19 0.000184165 -2.5024e-19 2.05431e-05)
(-0.000193975 1.54478e-05 9.4397e-20 0.000171449 1.13238e-19 2.25263e-05)
(-0.000176468 5.07408e-05 -3.87142e-19 0.000152271 -2.01243e-19 2.4197e-05)
(-0.000154508 7.9437e-05 8.43468e-20 0.000128938 4.69826e-20 2.55702e-05)
(-0.00013052 0.000100453 3.68495e-19 0.000104582 3.083e-19 2.59374e-05)
(-0.000106154 0.00011316 -5.04839e-19 8.13344e-05 -1.43586e-19 2.48192e-05)
(-8.18949e-05 0.000118215 -9.24608e-20 5.91855e-05 4.15615e-19 2.27094e-05)
(-5.97907e-05 0.000118328 -3.13242e-20 3.96702e-05 -5.31038e-20 2.01206e-05)
(-3.96742e-05 0.000112142 -3.74457e-19 2.292e-05 -6.06329e-20 1.67542e-05)
(-2.00911e-05 8.57855e-05 3.15427e-19 9.35858e-06 1.93521e-19 1.07325e-05)
(-9.86253e-06 6.41917e-05 7.66303e-21 3.75914e-06 -1.10723e-20 6.10339e-06)
(-6.7705e-06 6.98233e-05 1.78333e-19 2.1415e-06 4.96834e-20 4.629e-06)
(-2.53159e-06 7.9863e-05 1.31634e-19 -1.20594e-06 4.39115e-20 3.73753e-06)
(3.76506e-06 8.70185e-05 -1.27541e-20 -6.74131e-06 -1.20129e-21 2.97625e-06)
(9.46612e-06 8.92272e-05 1.37813e-21 -1.15622e-05 -4.99489e-21 2.09611e-06)
(0.00012618 0.000881042 1.39579e-19 -0.000138242 -3.86272e-20 1.20621e-05)
(0.000445754 0.0027244 -2.0321e-19 -0.000463462 -3.06936e-19 1.7708e-05)
(0.00149911 0.00802576 -8.58148e-18 -0.00151213 -4.28785e-19 1.30277e-05)
(0.000868712 0.00381865 4.46334e-19 -0.000860881 2.53801e-20 -7.83087e-06)
(0.00264228 0.00832842 -2.55146e-18 -0.00259787 9.80964e-19 -4.44039e-05)
(0.0105132 0.0119422 -2.2189e-16 -0.0102863 -1.57127e-16 -0.000226826)
(0.0187105 -0.0984948 -8.1658e-17 -0.0178789 -2.52627e-16 -0.000831513)
(-0.0256939 -0.58462 -5.45499e-15 0.0276898 5.37421e-16 -0.00199589)
(-0.18233 -1.49079 7.64844e-16 0.184146 2.51101e-15 -0.00181632)
(-0.400899 -2.40012 -8.62635e-19 0.401608 1.32898e-19 -0.00070864)
(-0.586159 -2.96471 -3.40544e-16 0.582193 4.54494e-15 0.00396549)
(-0.525562 -3.08646 1.42258e-16 0.536199 1.9016e-16 -0.0106363)
(-0.773415 -3.40277 -1.32584e-14 0.735923 2.74745e-15 0.037492)
(0.000253109 -0.000152908 1.41154e-20 -0.000256267 9.06184e-21 3.15769e-06)
(0.000274185 -0.000106577 -3.97532e-20 -0.000275958 -6.4076e-20 1.77299e-06)
(0.000285727 -4.96704e-05 -2.19719e-20 -0.000287346 3.72915e-20 1.61929e-06)
(0.000283468 1.17668e-05 1.06086e-19 -0.000284292 7.79056e-20 8.23737e-07)
(0.000264481 7.30901e-05 -3.9591e-20 -0.000265057 -2.04182e-19 5.76485e-07)
(0.000228062 0.000127521 -7.08502e-20 -0.00022807 4.80711e-20 8.61556e-09)
(0.000178335 0.000168591 1.78819e-19 -0.00017801 1.39204e-19 -3.25331e-07)
(0.000122704 0.000192328 -5.9455e-20 -0.000122585 -1.62474e-19 -1.19123e-07)
(6.67757e-05 0.000198831 -1.43181e-19 -6.69555e-05 -6.47247e-20 1.79804e-07)
(1.59969e-05 0.000188956 -1.06525e-19 -1.63365e-05 4.16256e-20 3.39622e-07)
(-2.36381e-05 0.000167064 1.17744e-19 2.33347e-05 4.47457e-21 3.03449e-07)
(-5.04734e-05 0.000139409 -6.73433e-20 5.01941e-05 -6.87882e-20 2.79219e-07)
(-6.5856e-05 0.00011099 -8.61597e-20 6.55256e-05 6.87621e-20 3.30456e-07)
(-7.23435e-05 8.47929e-05 8.34215e-20 7.18768e-05 3.58905e-20 4.66701e-07)
(-7.25482e-05 6.24372e-05 -1.22299e-19 7.18745e-05 2.04043e-20 6.7364e-07)
(-6.88985e-05 4.43343e-05 -3.28204e-20 6.79436e-05 -9.02489e-20 9.5488e-07)
(-6.3243e-05 3.02684e-05 3.64594e-20 6.19789e-05 4.66772e-20 1.26401e-06)
(-5.69272e-05 1.95717e-05 -1.33598e-19 5.5346e-05 6.26353e-21 1.58124e-06)
(-5.07696e-05 1.14607e-05 5.30561e-20 4.88928e-05 -9.52073e-22 1.87681e-06)
(-4.51125e-05 5.13678e-06 -2.02174e-19 4.29603e-05 1.38188e-20 2.15218e-06)
(-4.00226e-05 -2.2384e-08 -2.78515e-20 3.76446e-05 7.59554e-21 2.37801e-06)
(-3.53186e-05 -4.52285e-06 1.61987e-19 3.27497e-05 1.4977e-20 2.56887e-06)
(-3.06278e-05 -8.65352e-06 1.55239e-19 2.7908e-05 -3.55307e-20 2.71976e-06)
(-2.53527e-05 -1.22585e-05 -1.29375e-19 2.24325e-05 9.59034e-21 2.92018e-06)
(-1.9504e-05 -1.45488e-05 -1.80451e-21 1.63514e-05 1.07804e-21 3.15263e-06)
(-1.39167e-05 -1.52708e-05 -1.23842e-19 1.05759e-05 3.77726e-20 3.34075e-06)
(-9.0316e-06 -1.50181e-05 -2.44122e-21 5.38542e-06 2.64734e-23 3.64618e-06)
(-4.8161e-06 -1.41932e-05 -1.97349e-23 7.45863e-07 -1.0328e-21 4.07023e-06)
(-1.23721e-06 -1.31318e-05 -1.41977e-22 -3.32282e-06 2.87079e-23 4.56002e-06)
(1.63604e-06 -1.12932e-05 4.45378e-20 -6.35298e-06 3.68556e-22 4.71694e-06)
(4.36886e-06 -1.1802e-05 1.64932e-22 -1.00249e-05 -3.68892e-22 5.65605e-06)
(3.23011e-06 -5.83777e-06 4.28794e-23 -6.13147e-06 -1.50566e-24 2.90136e-06)
(1.18745e-05 -1.72381e-05 -6.13548e-19 -1.98615e-05 -4.59964e-20 7.98696e-06)
(8.68691e-05 -0.000109091 -4.0421e-18 -0.000129177 -3.45214e-19 4.23075e-05)
(2.45346e-05 -2.67456e-05 9.7568e-21 -3.24741e-05 9.82045e-22 7.9395e-06)
(0.000109637 -8.92056e-05 -8.25376e-18 -0.000127316 -1.31666e-19 1.76786e-05)
(0.000366149 -0.000131049 2.82425e-18 -0.000395669 -2.10519e-17 2.95205e-05)
(0.000935288 0.000212198 1.46096e-18 -0.000913592 2.88435e-19 -2.16961e-05)
(0.00383695 0.0197078 -5.0838e-16 -0.00520976 7.06178e-17 0.00137281)
(0.00018413 -0.000161019 1.57561e-20 -0.000183019 1.84812e-20 -1.11175e-06)
(0.000155879 -0.000189726 -1.18906e-20 -0.000154872 -1.3374e-20 -1.00715e-06)
(0.000118627 -0.000214947 4.95644e-23 -0.000117022 -9.88778e-22 -1.60483e-06)
(7.60875e-05 -0.000232394 -6.78677e-21 -7.41957e-05 6.36145e-21 -1.89182e-06)
(3.10336e-05 -0.000239978 1.51917e-19 -2.87644e-05 1.60412e-19 -2.26929e-06)
(-1.54535e-05 -0.000237321 -9.61128e-20 1.84304e-05 -1.23483e-19 -2.97694e-06)
(-5.93434e-05 -0.000224513 -7.26196e-21 6.29613e-05 3.1826e-20 -3.6178e-06)
(-9.76962e-05 -0.000202639 3.28451e-19 0.000102086 3.16252e-19 -4.38941e-06)
(-0.000128793 -0.00017356 -7.7525e-20 0.000134179 5.60926e-21 -5.386e-06)
(-0.000151052 -0.000140082 -3.71753e-19 0.000157476 -2.48586e-19 -6.42377e-06)