/*--------------------------------*- C++ -*----------------------------------*\
| =========                 |                                                 |
| \\      /  F ield         | OpenFOAM: The Open Source CFD Toolbox           |
|  \\    /   O peration     | Version:  2312                                  |
|   \\  /    A nd           | Website:  www.openfoam.com                      |
|    \\/     M anipulation  |                                                 |
\*---------------------------------------------------------------------------*/
FoamFile
{
    version     2.0;
    format      ascii;
    arch        "LSB;label=32;scalar=64";
    class       volScalarField;
    location    "350";
    object      turbulenceProperties:L;
}
// * * * * * * * * * * * * * * * * * * * * * * * * * * * * * * * * * * * * * //

dimensions      [0 1 0 0 0 0 0];

internalField   nonuniform List<scalar> 
10720
(
0.00178914
0.00171336
0.00164697
0.00158335
0.00154547
0.00152527
0.00152699
0.0015552
0.00161195
0.00170011
0.00182525
0.00199342
0.002211
0.00249247
0.00286022
0.00334532
0.00400933
0.00491169
0.00628133
0.00817069
0.011716
0.016691
0.0291055
0.0467114
0.0546939
0.056473
0.0575959
0.0591804
0.0606041
0.0614579
0.0618543
0.0620477
0.0621898
0.0623469
0.0625879
0.062954
0.0638532
0.0646834
0.0652195
0.00188277
0.00198101
0.00214043
0.00233271
0.00260312
0.00298962
0.00351478
0.004034
0.0039696
0.00348036
0.00297195
0.00260075
0.00237723
0.00228679
0.00231394
0.0024469
0.0026821
0.00302785
0.00350748
0.00416046
0.00506179
0.00630307
0.00810023
0.0106568
0.0146862
0.0206332
0.0304444
0.0433097
0.0512755
0.0542886
0.0551795
0.0555188
0.0557283
0.0558724
0.0559807
0.0560831
0.0562072
0.0564334
0.0565263
0.00386724
0.00387789
0.00390031
0.00395795
0.00405247
0.00417001
0.00432271
0.00451615
0.00473542
0.00498436
0.00526238
0.00548436
0.00552539
0.00534565
0.00500176
0.0047896
0.00499075
0.00555616
0.00657309
0.00777203
0.0101099
0.0130264
0.0186465
0.0300572
0.0414802
0.0542112
0.0691081
0.0853817
0.101198
0.115557
0.129248
0.143042
0.155787
0.166568
0.175311
0.182084
0.18634
0.187512
0.181481
0.00388511
0.00391212
0.00396873
0.00405739
0.00418863
0.00438251
0.00464792
0.00495706
0.00530271
0.00572799
0.0062455
0.00682951
0.00747725
0.00820246
0.00901974
0.00994347
0.0110084
0.0122572
0.0138297
0.0160362
0.0198627
0.0282126
0.0605255
0.233838
0.116479
0.0106146
0.021381
0.0578526
0.107135
0.156021
0.194569
0.215836
0.22232
0.221015
0.217005
0.212398
0.207405
0.198333
0.175244
0.00473345
0.00475252
0.00480732
0.00489472
0.00499146
0.00510466
0.0052273
0.00534562
0.00545424
0.00554353
0.00561608
0.00565993
0.0056733
0.00565229
0.00564586
0.00571636
0.0061397
0.00654857
0.0166634
0.00542507
0.00861634
0.0093823
0.031127
0.0209419
0.0265166
0.0342089
0.0443522
0.0586819
0.077289
0.0983535
0.119602
0.139437
0.158533
0.178022
0.197628
0.216541
0.233702
0.249314
0.245464
0.00471491
0.00471752
0.00472357
0.00476584
0.00484408
0.00498481
0.00520086
0.00548582
0.00579786
0.00618196
0.00669458
0.00733605
0.00809992
0.00899234
0.0100034
0.0111268
0.0123241
0.0135439
0.0147005
0.0157428
0.0166074
0.0172549
0.0176527
0.0178904
0.0179241
0.0179571
0.0174186
0.0228413
0.0157174
0.0446879
0.101283
0.175195
0.221675
0.241582
0.252163
0.258862
0.261729
0.273183
0.246077
0.00514931
0.00514396
0.00515691
0.00517852
0.00522398
0.00529395
0.00538525
0.00550617
0.0056549
0.00583434
0.00604759
0.0063002
0.00660058
0.00695709
0.00738523
0.00792946
0.00861712
0.00937202
0.0106609
0.0155983
0.0775059
0.00748221
0.00580575
0.00829282
0.016131
0.0284006
0.0198241
0.0519984
0.0748168
0.0815978
0.102918
0.127536
0.152179
0.175424
0.198508
0.222873
0.247535
0.272805
0.280575
0.00517717
0.00522026
0.00529011
0.00537806
0.00549481
0.00565978
0.00587255
0.00612757
0.00643184
0.0068195
0.00730434
0.00786754
0.00849122
0.00916728
0.00988478
0.0106366
0.011403
0.0121666
0.0129046
0.0136158
0.0142892
0.0149393
0.0156042
0.016409
0.0173811
0.018336
0.0191712
0.0198509
0.0207707
0.0221762
0.0255504
0.032205
0.0458816
0.156832
0.239739
0.234551
0.245667
0.257502
0.242403
0.00594548
0.00595075
0.00597413
0.00601651
0.00608391
0.00617901
0.00630013
0.00644964
0.00662761
0.00682778
0.00704712
0.0072787
0.00751137
0.0077342
0.00793563
0.00811808
0.00832268
0.00860321
0.00890814
0.00937359
0.0116035
0.0378993
0.100684
0.32049
0
0
0.00736053
0.0116421
0.0208194
0.0162985
0.0342431
0.12653
0.186804
0.184892
0.202608
0.224494
0.249933
0.280386
0.298146
0.00595319
0.00597434
0.00601718
0.0060877
0.00619152
0.0063481
0.00655204
0.00679451
0.00708523
0.00745174
0.00790067
0.00842909
0.00903605
0.00972653
0.0105026
0.011364
0.0123028
0.0133032
0.0143391
0.0153901
0.0164309
0.0174562
0.01849
0.0196692
0.0211332
0.0228227
0.0244977
0.025894
0.0265995
0.0276271
0.0253436
0.0584565
0.023583
0.0398013
0.0281417
0.0516836
0.104004
0.11337
0.192228
0.0065669
0.00655294
0.00655427
0.00656601
0.0065985
0.00665219
0.00672621
0.00682568
0.00695171
0.00710479
0.00728834
0.00750375
0.0077522
0.00803614
0.00835801
0.00873622
0.00921254
0.00979453
0.0104496
0.011142
0.0118651
0.0128437
0.015754
0.0399957
0.119869
0.205573
0.604358
0
0
0.00971566
0.0157283
0.0346121
0.0166445
0.10614
0.312302
0.250118
0.257447
0.283173
0.305276
0.00659685
0.00663892
0.00670162
0.00678711
0.00690183
0.00706181
0.00726044
0.00749341
0.00777408
0.00812434
0.0085472
0.00904127
0.00960443
0.0102365
0.0109347
0.0116913
0.0124947
0.0133282
0.0141727
0.0150138
0.0158438
0.0166744
0.0175447
0.0185618
0.0198307
0.0213174
0.0229298
0.024603
0.0263295
0.0280808
0.0298968
0.0319125
0.0357072
0.0424155
0.0581937
0.0368958
0.0595197
0.0619532
0.099134
0.00730136
0.00728539
0.00728285
0.00729208
0.0073213
0.00737274
0.00744652
0.00754697
0.00767632
0.00783499
0.00802505
0.00824725
0.00850049
0.008783
0.00909288
0.00942278
0.00975513
0.0100985
0.0104899
0.0109478
0.0114483
0.0120004
0.0125488
0.0135655
0.0162481
0.0235129
0.0706757
0.166286
0.245603
1.21353
0
0
0.0108532
0.0443822
0.0416351
0.222318
0.309728
0.294206
0.308963
0.00733151
0.00737294
0.00743452
0.00752187
0.00763998
0.00779994
0.00799224
0.00821897
0.00849247
0.0088262
0.0092232
0.00968441
0.0102111
0.0108062
0.011471
0.0122036
0.0130001
0.0138515
0.014745
0.0156703
0.0166198
0.0175998
0.0186432
0.0198434
0.021312
0.0230546
0.0250006
0.0270865
0.0292883
0.0315338
0.0335971
0.0351718
0.0361777
0.0376517
0.0445822
0.0979338
0.351612
3.3398
0.0221894
0.00801995
0.00799272
0.00797668
0.00797024
0.00798117
0.00801127
0.00805996
0.00813197
0.0082292
0.00835212
0.00850426
0.00868692
0.00890145
0.00915002
0.00943463
0.00975629
0.0101278
0.010573
0.0110901
0.011656
0.0122335
0.0127759
0.0132403
0.0136319
0.01425
0.0154469
0.0175621
0.0216819
0.0286444
0.140267
0.225329
2.29213
0
0
0.0253412
0.0852425
0.187676
0.335735
0.31646
0.00806138
0.00811217
0.00818182
0.00827708
0.00840134
0.00856333
0.00875144
0.00897388
0.00924116
0.00955999
0.00993521
0.0103681
0.010861
0.0114178
0.0120401
0.0127257
0.0134716
0.0142689
0.015106
0.0159735
0.016867
0.0177943
0.0187869
0.0199207
0.0212839
0.0228853
0.024679
0.0266339
0.0287727
0.0311279
0.0336941
0.036481
0.0395125
0.042822
0.0458363
0.0500448
0.0591066
0.290301
0.0599317
0.00878099
0.00874659
0.00872179
0.0087064
0.00870695
0.00872568
0.00876251
0.0088223
0.00890701
0.00901798
0.00915846
0.00933031
0.00953513
0.00977512
0.0100512
0.0103658
0.0107187
0.0111017
0.011518
0.011973
0.0124635
0.012966
0.0134674
0.0139792
0.0145633
0.0153489
0.0163702
0.0175883
0.0190324
0.0221075
0.0273865
0.236407
0.353718
0
0
0
0.091502
0.307269
0.3332
0.00882878
0.00888508
0.00895949
0.00906126
0.00919023
0.00935349
0.00953955
0.0097592
0.0100207
0.0103267
0.0106822
0.0110894
0.0115515
0.0120732
0.0126578
0.0133055
0.0140157
0.0147844
0.0156052
0.0164723
0.0173841
0.01835
0.0193999
0.0205973
0.0220196
0.0236911
0.0255796
0.0276556
0.0299299
0.0324176
0.0350827
0.0377967
0.0403492
0.0424667
0.0438528
0.0436485
0.0422182
0.040738
0.45083
0.00956361
0.0095201
0.00948425
0.00945679
0.00944409
0.00944736
0.00946711
0.0095081
0.00957185
0.00965981
0.00977545
0.00992052
0.0100969
0.0103072
0.0105535
0.0108384
0.011163
0.0115361
0.0119659
0.0124443
0.0129512
0.0134607
0.0139594
0.0144892
0.0151365
0.0159802
0.0169995
0.0180579
0.0190403
0.0199853
0.0210411
0.024465
0.0401364
0.229848
0
0
0.16369
0.0338579
0.355543
0.0096202
0.00968368
0.00976462
0.00987412
0.0100085
0.0101728
0.0103588
0.0105772
0.010833
0.0111278
0.0114662
0.0118504
0.0122846
0.0127746
0.0133237
0.0139337
0.0146063
0.0153388
0.0161279
0.0169701
0.0178654
0.0188235
0.0198712
0.0210596
0.0224546
0.0240811
0.0259173
0.027942
0.0301707
0.032633
0.0353315
0.038233
0.0412926
0.0442913
0.0469461
0.047564
0.047884
0.0374572
0.0649687
0.0103791
0.0103271
0.0102811
0.0102427
0.0102183
0.0102083
0.0102142
0.01024
0.0102878
0.0103589
0.010457
0.0105841
0.0107423
0.0109347
0.0111633
0.0114304
0.0117388
0.0120886
0.0124792
0.0129096
0.013371
0.0138524
0.014346
0.0148803
0.0155352
0.0163916
0.0174548
0.0186118
0.0197208
0.0206653
0.0214749
0.02207
0.0235294
0.0309415
0.205279
0
0
0.0541998
0.321942
0.010444
0.0105143
0.0106012
0.0107185
0.0108586
0.011024
0.0112113
0.0114295
0.0116803
0.0119649
0.0122884
0.0126525
0.0130615
0.0135216
0.0140378
0.014613
0.0152506
0.0159511
0.0167134
0.0175373
0.0184259
0.01939
0.0204542
0.0216631
0.0230726
0.0247102
0.0265664
0.0286263
0.030903
0.0334191
0.0361674
0.0390854
0.0420451
0.0447676
0.0469629
0.0472713
0.0473399
0.0399389
0.0355456
0.0112263
0.011165
0.0111083
0.0110585
0.0110216
0.0109978
0.0109886
0.0109983
0.0110287
0.0110811
0.0111592
0.0112649
0.0114007
0.0115693
0.0117733
0.0120152
0.0122974
0.0126208
0.0129906
0.013407
0.0138584
0.014332
0.0148231
0.0153551
0.0159948
0.0168174
0.0178419
0.0189929
0.0201573
0.0212607
0.0223038
0.0230925
0.023563
0.0240885
0.0295544
0.241136
0
0.0367322
0.215427
0.0112998
0.0113778
0.0114711
0.0115962
0.0117424
0.0119098
0.0120994
0.0123181
0.0125646
0.0128409
0.0131511
0.013497
0.0138833
0.014317
0.0148028
0.0153452
0.0159497
0.0166183
0.0173534
0.0181561
0.019031
0.0199894
0.0210558
0.022269
0.0236737
0.0252981
0.0271403
0.0291914
0.031464
0.0339813
0.0367465
0.0397166
0.042811
0.0457964
0.048338
0.049074
0.0487966
0.0430609
0.0340627
0.0121088
0.012038
0.0119705
0.0119093
0.0118602
0.011823
0.0117993
0.0117936
0.0118077
0.0118428
0.0119027
0.0119892
0.012105
0.0122531
0.012436
0.0126563
0.0129168
0.0132177
0.0135613
0.013948
0.0143717
0.0148241
0.0153047
0.0158337
0.0164636
0.0172574
0.018235
0.01934
0.0204798
0.0216065
0.0227276
0.0238076
0.0246733
0.0250769
0.0246789
0.0345877
3.95842
0.0226663
0.123842
0.0121909
0.012277
0.0123771
0.01251
0.0126624
0.012833
0.0130255
0.0132454
0.0134885
0.0137574
0.0140559
0.0143862
0.0147524
0.0151617
0.0156202
0.0161329
0.0167063
0.0173446
0.0180523
0.0188335
0.0196948
0.0206489
0.0217189
0.0229383
0.024346
0.0259691
0.0278133
0.0298756
0.0321692
0.0347166
0.0375215
0.0405387
0.0436719
0.0466761
0.0492054
0.0500338
0.0496845
0.0448558
0.0355452
0.0130283
0.0129479
0.0128692
0.0127962
0.0127345
0.0126835
0.0126451
0.0126241
0.0126217
0.0126395
0.012681
0.0127482
0.0128435
0.01297
0.0131302
0.0133269
0.0135632
0.0138393
0.0141576
0.0145209
0.0149251
0.0153616
0.0158314
0.0163526
0.0169693
0.0177349
0.0186688
0.0197263
0.0208271
0.0219276
0.0230307
0.0241404
0.0252081
0.0261012
0.0263702
0.0246377
2.56874
0.0428456
0.0629334
0.0131197
0.013214
0.0133218
0.0134624
0.0136212
0.0137961
0.0139927
0.0142137
0.0144545
0.0147173
0.0150061
0.0153222
0.0156703
0.0160581
0.0164913
0.0169764
0.0175212
0.0181311
0.0188121
0.0195711
0.0204172
0.0213638
0.022433
0.0236537
0.0250597
0.0266779
0.0285179
0.0305828
0.032887
0.0354529
0.038288
0.0413548
0.0445728
0.0477152
0.0504382
0.0514873
0.0512611
0.0466214
0.0374644
0.0139875
0.0138973
0.0138069
0.0137221
0.0136478
0.0135826
0.0135297
0.0134934
0.0134747
0.0134755
0.013499
0.0135472
0.0136227
0.0137283
0.0138672
0.0140417
0.0142545
0.0145073
0.0148007
0.0151376
0.0155183
0.015935
0.0163899
0.0168997
0.017501
0.0182389
0.0191327
0.0201472
0.0212133
0.022287
0.0233651
0.0244408
0.0255151
0.0264262
0.0278183
0.0253262
0.0354117
0.921556
0.020525
0.0140889
0.0141916
0.0143074
0.0144564
0.0146217
0.014802
0.0150033
0.015226
0.0154652
0.0157232
0.0160034
0.0163075
0.01664
0.0170084
0.0174192
0.017879
0.0183968
0.0189799
0.0196361
0.0203738
0.0212034
0.0221395
0.0232045
0.0244267
0.0258339
0.0274501
0.0292896
0.0313616
0.0336823
0.0362749
0.0391504
0.0422761
0.045575
0.048824
0.0516829
0.0529092
0.0528162
0.0484732
0.0394431
0.0149892
0.0148885
0.0147863
0.0146893
0.0146016
0.0145223
0.0144545
0.0144026
0.0143675
0.0143512
0.0143569
0.0143865
0.0144424
0.0145276
0.0146445
0.0147962
0.0149853
0.0152142
0.0154824
0.0157942
0.016152
0.0165493
0.0169884
0.0174837
0.0180671
0.0187768
0.019631
0.0206031
0.0216349
0.0226837
0.0237419
0.0247939
0.0258441
0.0267196
0.0279753
0.027851
0.0260554
2.03735
0.0506746
0.0151006
0.0152127
0.0153369
0.0154945
0.0156666
0.0158534
0.0160602
0.0162853
0.016524
0.0167782
0.0170514
0.0173449
0.0176634
0.0180149
0.0184053
0.018843
0.0193365
0.0198947
0.0205269
0.0212433
0.0220562
0.0229812
0.0240412
0.0252611
0.0266667
0.0282803
0.0301199
0.0321986
0.0345355
0.0371553
0.040073
0.0432631
0.0466595
0.0500517
0.0531067
0.0545731
0.0546273
0.0505498
0.0415416
0.016036
0.0159243
0.01581
0.0157003
0.015599
0.0155052
0.0154222
0.0153545
0.0153032
0.0152699
0.015258
0.0152692
0.0153054
0.01537
0.0154655
0.0155948
0.0157607
0.0159658
0.0162095
0.0164959
0.0168293
0.0172057
0.0176266
0.0181049
0.0186677
0.0193485
0.020164
0.0210942
0.0220908
0.0231139
0.0241524
0.0251905
0.0262152
0.0271429
0.0279425
0.0296913
0.0252525
1.04464
0.960174
0.0161575
0.0162794
0.0164129
0.0165796
0.016759
0.0169533
0.0171662
0.0173944
0.0176333
0.0178851
0.0181525
0.0184373
0.0187442
0.0190805
0.0194533
0.0198705
0.0203421
0.0208771
0.0214867
0.0221823
0.0229779
0.023891
0.0249444
0.0261617
0.0275654
0.0291784
0.0310196
0.0331069
0.0354629
0.0381142
0.0410807
0.0443452
0.0478511
0.0514
0.0546669
0.0563968
0.056616
0.0528079
0.0438194
0.0171306
0.0170076
0.0168809
0.0167576
0.0166427
0.0165337
0.0164353
0.0163515
0.0162836
0.0162332
0.0162035
0.0161959
0.0162129
0.0162574
0.0163317
0.0164389
0.0165814
0.0167626
0.016982
0.0172433
0.0175518
0.0179066
0.0183078
0.0187665
0.0193069
0.0199579
0.020735
0.0216236
0.022584
0.0235795
0.0245961
0.0256211
0.0266242
0.0276007
0.028231
0.0301047
0.0268622
0.0446958
0.785559
0.0172629
0.0173949
0.0175384
0.0177148
0.0179019
0.0181045
0.0183245
0.0185566
0.0187968
0.0190473
0.0193104
0.0195879
0.0198847
0.0202084
0.0205656
0.020965
0.0214168
0.0219309
0.0225194
0.0231956
0.0239742
0.0248735
0.0259176
0.0271315
0.0285357
0.0301486
0.0319924
0.0340897
0.0364666
0.039153
0.0421741
0.045523
0.0491548
0.0528879
0.0564096
0.0584523
0.0588624
0.0552811
0.0463048
0.018276
0.0181415
0.0180014
0.0178646
0.017735
0.0176106
0.0174961
0.0173962
0.0173114
0.0172437
0.0171961
0.0171704
0.0171682
0.0171927
0.0172458
0.0173308
0.0174504
0.0176073
0.0178026
0.0180389
0.0183221
0.0186545
0.0190344
0.0194714
0.0199874
0.020608
0.0213472
0.0221947
0.0231179
0.0240842
0.0250772
0.0260856
0.0270751
0.0280536
0.0287582
0.0300234
0.02925
0.0301815
0.120403
0.0184196
0.0185624
0.0187164
0.0189029
0.0190988
0.0193105
0.0195383
0.0197751
0.0200178
0.0202679
0.0205281
0.0208
0.0210886
0.0214016
0.0217457
0.0221294
0.0225637
0.0230592
0.0236284
0.0242855
0.0250476
0.0259346
0.0269709
0.0281798
0.0295814
0.0311947
0.0330432
0.0351532
0.0375546
0.0402813
0.0433649
0.0468108
0.0505867
0.0545326
0.0583509
0.0607571
0.0613906
0.0580032
0.0490233
0.0194754
0.0193288
0.0191749
0.0190238
0.0188793
0.0187387
0.0186079
0.0184912
0.0183892
0.018304
0.0182386
0.0181942
0.0181727
0.0181769
0.0182091
0.018272
0.0183686
0.0185016
0.0186734
0.0188847
0.0191422
0.0194508
0.0198082
0.0202221
0.0207123
0.0213016
0.0220031
0.0228098
0.0236954
0.0246311
0.0255996
0.0265883
0.0275693
0.0285249
0.0293567
0.0301496
0.0310091
0.0293667
0.0438751
0.0196308
0.019785
0.0199502
0.020147
0.0203532
0.0205746
0.0208109
0.0210538
0.0212999
0.021551
0.0218096
0.0220775
0.0223597
0.0226638
0.0229967
0.0233672
0.0237861
0.0242647
0.0248167
0.0254569
0.0262029
0.0270765
0.0281039
0.0293084
0.0307086
0.0323242
0.0341796
0.0363045
0.0387336
0.0415056
0.0446598
0.0482158
0.0521569
0.0563509
0.0605199
0.0633579
0.0642582
0.0610072
0.0519861
0.0207321
0.0205727
0.0204046
0.0202385
0.0200784
0.0199212
0.0197736
0.0196396
0.01952
0.019417
0.0193333
0.0192702
0.0192294
0.0192137
0.0192249
0.019266
0.0193398
0.0194492
0.0195969
0.0197827
0.0200143
0.0202981
0.0206317
0.021021
0.0214841
0.0220416
0.0227056
0.0234719
0.0243194
0.0252232
0.0261662
0.0271338
0.0281065
0.0290421
0.0299529
0.0305893
0.0318433
0.0307856
0.0338826
0.0208998
0.0210662
0.0212429
0.0214508
0.0216683
0.0219005
0.0221461
0.0223957
0.0226464
0.0228998
0.0231585
0.0234242
0.0237016
0.0239987
0.0243224
0.0246818
0.0250879
0.0255519
0.026088
0.0267125
0.0274445
0.0283057
0.0293235
0.0305231
0.031924
0.0335437
0.0354075
0.0375499
0.0400105
0.042834
0.0460686
0.0497504
0.0538818
0.0583658
0.0629504
0.0663041
0.0675277
0.0643511
0.0552277
0.0220496
0.0218769
0.0216936
0.0215122
0.0213356
0.0211612
0.0209961
0.0208443
0.0207067
0.0205855
0.0204834
0.0204015
0.0203413
0.0203055
0.0202956
0.0203149
0.0203659
0.0204513
0.0205746
0.0207356
0.0209414
0.0211995
0.0215082
0.021872
0.0223065
0.0228314
0.0234581
0.0241842
0.0249934
0.0258643
0.0267803
0.0277263
0.0286875
0.0296148
0.0305517
0.0312268
0.0323219
0.0325172
0.0326436
0.0222299
0.0224094
0.0225984
0.022818
0.0230477
0.0232915
0.0235473
0.023805
0.0240615
0.0243188
0.0245785
0.0248433
0.025118
0.0254103
0.0257271
0.0260773
0.0264725
0.0269242
0.027447
0.0280576
0.0287758
0.029626
0.0306362
0.0318322
0.0332332
0.0348574
0.0367325
0.0388959
0.0413929
0.0442753
0.0476015
0.0514259
0.055777
0.0606006
0.0656815
0.0696611
0.0712769
0.0680913
0.0587747
0.0234315
0.0232447
0.0230458
0.0228482
0.0226543
0.0224622
0.0222788
0.0221089
0.0219526
0.0218127
0.0216917
0.0215905
0.0215106
0.0214545
0.0214238
0.0214212
0.0214494
0.0215112
0.0216103
0.0217465
0.0219263
0.0221577
0.0224405
0.0227776
0.0231828
0.0236745
0.0242641
0.0249503
0.0257208
0.0265578
0.0274459
0.0283699
0.0293174
0.0302435
0.0311823
0.0319536
0.032864
0.0338889
0.0335184
0.0236248
0.023818
0.0240201
0.0242524
0.0244953
0.0247516
0.0250189
0.0252855
0.0255492
0.0258115
0.0260744
0.02634
0.0266137
0.0269027
0.0272142
0.0275578
0.0279444
0.0283858
0.0288973
0.0294962
0.0302028
0.0310428
0.0320459
0.0332389
0.0346416
0.0362723
0.0381621
0.0403505
0.0428891
0.0458375
0.0492669
0.0532534
0.0578575
0.0630792
0.0687569
0.0735082
0.0756164
0.0723036
0.0626536
0.0248813
0.0246799
0.0244648
0.0242499
0.0240385
0.0238278
0.0236255
0.0234365
0.0232614
0.0231022
0.0229621
0.0228412
0.0227416
0.022665
0.022613
0.0225884
0.0225938
0.0226319
0.0227064
0.0228177
0.0229713
0.0231752
0.0234315
0.0237409
0.0241162
0.0245746
0.0251271
0.0257737
0.0265056
0.0273078
0.0281669
0.0290683
0.0300009
0.0309277
0.0318671
0.0327226
0.033574
0.0349255
0.0349325
0.0250887
0.0252958
0.0255119
0.0257578
0.0260147
0.0262846
0.0265643
0.0268416
0.0271138
0.0273827
0.0276499
0.0279178
0.0281919
0.02848
0.028789
0.0291278
0.0295078
0.0299412
0.0304435
0.0310323
0.0317289
0.0325601
0.0335575
0.0347491
0.0361558
0.037797
0.039703
0.0419206
0.0445062
0.0475288
0.0510743
0.0552446
0.0601382
0.0658258
0.0722262
0.0779458
0.0806827
0.0770917
0.0669089
0.0264032
0.0261867
0.0259545
0.0257215
0.0254917
0.0252615
0.0250397
0.0248311
0.0246361
0.0244573
0.0242974
0.0241566
0.0240368
0.0239393
0.0238662
0.0238195
0.0238019
0.0238163
0.0238659
0.0239524
0.0240795
0.0242558
0.0244852
0.0247666
0.025111
0.0255355
0.0260509
0.0266582
0.0273513
0.0281185
0.0289477
0.0298258
0.0307432
0.0316695
0.0326155
0.0335299
0.0344202
0.0358606
0.0363945
0.0266255
0.026847
0.0270782
0.0273382
0.0276102
0.027895
0.0281882
0.0284772
0.0287594
0.0290363
0.0293096
0.029582
0.0298589
0.0301474
0.0304551
0.0307915
0.0311674
0.0315951
0.0320901
0.0326713
0.0333604
0.034185
0.035178
0.0363696
0.0377812
0.0394349
0.0413613
0.0436125
0.0462511
0.0493573
0.0530333
0.0574098
0.0626341
0.0688664
0.076148
0.0831078
0.0866752
0.0825673
0.0715679
0.0280017
0.0277689
0.027519
0.0272672
0.027018
0.0267677
0.0265254
0.0262967
0.026081
0.0258821
0.0257017
0.0255407
0.0254
0.0252817
0.025187
0.0251179
0.0250773
0.0250677
0.0250925
0.0251541
0.0252546
0.0254026
0.0256044
0.0258569
0.0261702
0.026561
0.0270396
0.0276082
0.0282625
0.0289942
0.029793
0.0306474
0.0315488
0.0324749
0.0334313
0.0343912
0.0353604
0.0368429
0.0378106
0.028239
0.028476
0.0287232
0.0289982
0.0292863
0.0295871
0.0298948
0.0301971
0.0304907
0.0307773
0.0310582
0.0313366
0.0316179
0.0319093
0.032218
0.0325536
0.0329274
0.0333519
0.0338421
0.0344174
0.0351007
0.0359211
0.0369128
0.0381072
0.0395272
0.0411947
0.0431457
0.0454348
0.0481329
0.0513321
0.0551523
0.0597591
0.0653605
0.0722278
0.0805849
0.0891659
0.0938715
0.0888871
0.0766741
0.029681
0.0294312
0.0291624
0.0288912
0.0286218
0.0283504
0.0280872
0.0278371
0.0276003
0.0273802
0.027179
0.026997
0.0268353
0.0266956
0.0265789
0.0264873
0.0264236
0.0263898
0.0263898
0.026426
0.0264999
0.0266197
0.0267929
0.0270162
0.0272984
0.0276553
0.0280974
0.0286276
0.0292436
0.0299395
0.0307074
0.0315379
0.0324234
0.0333476
0.0343181
0.0353185
0.0363721
0.037916
0.0392185
0.0299339
0.0301871
0.0304513
0.0307422
0.0310473
0.0313656
0.0316891
0.0320057
0.0323121
0.0326101
0.0329008
0.0331869
0.0334742
0.0337702
0.0340824
0.0344196
0.0347935
0.0352161
0.035704
0.0362763
0.0369561
0.0377737
0.0387659
0.0399646
0.0413952
0.0430806
0.0450595
0.0473918
0.0501565
0.0534572
0.0574368
0.0622988
0.0683235
0.0759262
0.0855999
0.0963473
0.102685
0.0962386
0.0822538
0.0314456
0.0311783
0.0308896
0.0305981
0.0303076
0.030014
0.029729
0.0294567
0.0291982
0.0289561
0.0287334
0.0285299
0.0283468
0.0281852
0.0280464
0.0279322
0.0278448
0.027787
0.0277616
0.0277721
0.027819
0.0279107
0.0280549
0.0282492
0.0285
0.028823
0.0292289
0.0297211
0.0302992
0.0309595
0.0316962
0.032502
0.0333726
0.0342941
0.0352793
0.03632
0.0374548
0.0390802
0.0406594
0.0317152
0.031985
0.032267
0.0325749
0.0328981
0.0332346
0.0335756
0.0339079
0.0342288
0.0345399
0.0348419
0.0351378
0.0354335
0.0357358
0.0360528
0.0363936
0.0367697
0.0371935
0.0376811
0.0382524
0.0389315
0.0397491
0.040744
0.04195
0.0433938
0.0451004
0.0471115
0.0494918
0.052329
0.0557401
0.0598923
0.0650326
0.0715252
0.0799682
0.0912463
0.104952
0.113775
0.104859
0.088329
0.0333008
0.0330149
0.0327056
0.0323928
0.0320802
0.0317638
0.0314557
0.0311606
0.0308793
0.0306148
0.0303698
0.0301442
0.0299388
0.0297548
0.0295933
0.0294559
0.0293448
0.0292626
0.0292118
0.0291963
0.0292164
0.0292798
0.0293951
0.0295595
0.0297793
0.0300689
0.0304391
0.0308939
0.0314344
0.0320594
0.032765
0.0335461
0.0344007
0.035321
0.0363201
0.0374037
0.0386164
0.0403329
0.042158
0.0335879
0.0338748
0.0341753
0.0345017
0.0348438
0.0351995
0.0355593
0.0359088
0.0362458
0.0365715
0.0368865
0.0371941
0.0374998
0.0378111
0.0381349
0.0384813
0.0388617
0.0392886
0.0397783
0.0403509
0.041031
0.0418513
0.0428515
0.0440676
0.0455284
0.0472589
0.0493058
0.0517383
0.0546534
0.0581831
0.0625186
0.067957
0.0749583
0.0843443
0.0975505
0.115366
0.128251
0.115009
0.0948892
0.0352518
0.0349461
0.0346156
0.0342803
0.0339446
0.0336046
0.0332723
0.0329534
0.0326483
0.0323605
0.0320923
0.0318438
0.0316157
0.0314091
0.0312244
0.0310637
0.0309284
0.0308212
0.0307449
0.0307033
0.0306964
0.0307316
0.0308177
0.0309524
0.0311412
0.0313977
0.0317327
0.0321509
0.0326547
0.0332445
0.0339192
0.034676
0.035515
0.0364332
0.0374474
0.0385733
0.0398624
0.041671
0.0437203
0.0355571
0.0358619
0.0361815
0.0365278
0.0368896
0.0372656
0.0376453
0.0380137
0.0383682
0.0387104
0.0390405
0.0393611
0.0396786
0.0400007
0.0403338
0.040688
0.0410748
0.0415065
0.0420002
0.0425766
0.0432605
0.0440859
0.0450941
0.0463228
0.0478021
0.0495607
0.0516463
0.0541355
0.0571331
0.0607871
0.0653147
0.0710638
0.0786027
0.0890109
0.104467
0.128029
0.14819
0.126919
0.101871
0.0373039
0.0369778
0.0366248
0.0362663
0.0359065
0.0355413
0.0351841
0.0348404
0.0345105
0.0341985
0.0339065
0.0336344
0.0333829
0.0331529
0.0329447
0.0327598
0.0326
0.0324679
0.032366
0.0322979
0.032264
0.0322709
0.0323274
0.0324325
0.0325908
0.0328148
0.0331151
0.0334976
0.0339654
0.034521
0.0351651
0.0358975
0.0367214
0.0376379
0.0386673
0.0398338
0.0411995
0.0431018
0.0453525
0.0376282
0.0379519
0.0382914
0.0386582
0.0390411
0.0394385
0.0398392
0.0402278
0.0406015
0.0409618
0.0413082
0.0416446
0.0419763
0.0423101
0.0426541
0.0430181
0.0434133
0.0438524
0.0443525
0.0449346
0.0456246
0.0464567
0.0474754
0.04872
0.0502208
0.0520097
0.0541369
0.0566853
0.0597686
0.0635492
0.0682718
0.0743335
0.0824169
0.0938815
0.111826
0.143264
0.17819
0.140581
0.10914
0.0394631
0.0391155
0.0387392
0.0383563
0.0379714
0.0375802
0.037197
0.0368273
0.0364717
0.0361345
0.0358178
0.0355213
0.0352456
0.0349914
0.034759
0.0345497
0.0343652
0.0342078
0.0340798
0.0339848
0.0339237
0.0339024
0.0339298
0.0340056
0.0341338
0.0343258
0.0345925
0.0349399
0.0353727
0.0358947
0.036509
0.0372177
0.0380264
0.0389416
0.0399863
0.0411942
0.0426328
0.044626
0.0470609
0.0398073
0.0401505
0.0405108
0.0408991
0.0413038
0.0417237
0.0421467
0.0425567
0.042951
0.0433311
0.0436961
0.0440493
0.0443967
0.0447451
0.045102
0.0454775
0.0458827
0.0463309
0.0468394
0.047429
0.0481266
0.0489684
0.0499996
0.0512619
0.0527873
0.0546081
0.0567794
0.0593885
0.0625578
0.0664632
0.0713749
0.0777394
0.086344
0.0988224
0.119263
0.160588
0.231156
0.155272
0.116444
0.0417356
0.0413655
0.0409651
0.0405566
0.0401454
0.0397271
0.0393165
0.0389198
0.0385375
0.038174
0.0378315
0.0375098
0.0372092
0.0369303
0.0366733
0.0364389
0.0362291
0.0360457
0.0358911
0.0357694
0.0356814
0.0356319
0.03563
0.0356771
0.0357756
0.0359368
0.0361706
0.0364842
0.036883
0.0373725
0.0379575
0.0386431
0.0394375
0.0403513
0.0414115
0.0426593
0.0441718
0.0462527
0.0488489
0.0421007
0.0424637
0.0428458
0.0432566
0.043684
0.0441273
0.0445737
0.0450063
0.0454225
0.0458237
0.0462089
0.0465809
0.0469459
0.0473104
0.047682
0.048071
0.0484877
0.0489466
0.0494653
0.0500646
0.0507727
0.0516256
0.0526709
0.0539523
0.0555033
0.0573582
0.0595743
0.0622432
0.065495
0.0695192
0.0746062
0.0812434
0.0903051
0.103643
0.126174
0.177092
0.371328
0.16876
0.123426
0.0441279
0.0437346
0.043309
0.0428737
0.0424351
0.0419883
0.0415493
0.0411242
0.040714
0.0403228
0.0399539
0.039606
0.0392796
0.0389752
0.0386927
0.0384329
0.0381973
0.0379877
0.0378069
0.0376582
0.037543
0.0374653
0.0374345
0.0374532
0.0375228
0.0376534
0.0378556
0.0381366
0.0385027
0.0389608
0.0395179
0.0401812
0.0409618
0.0418745
0.0429501
0.0442367
0.0458197
0.0479886
0.0507269
0.0445147
0.0448984
0.045303
0.0457372
0.0461879
0.0466555
0.0471261
0.0475826
0.0480221
0.0484458
0.0488529
0.0492452
0.0496289
0.0500114
0.0503993
0.0508025
0.0512334
0.051705
0.0522348
0.0528452
0.0535638
0.0544296
0.0554917
0.0567944
0.0583721
0.0602604
0.0625191
0.065245
0.0685732
0.0727034
0.0779405
0.0847992
0.0942084
0.10813
0.131829
0.186645
0.537456
0.177408
0.129661
0.0466472
0.0462297
0.0457778
0.0453147
0.0448472
0.0443708
0.043902
0.0434475
0.0430078
0.0425882
0.0421915
0.0418163
0.0414632
0.0411325
0.040824
0.0405382
0.0402761
0.0400401
0.0398324
0.0396563
0.039514
0.0394084
0.0393492
0.03934
0.0393812
0.0394826
0.0396545
0.0399042
0.0402391
0.0406672
0.0411974
0.0418395
0.042607
0.0435191
0.0446097
0.0459345
0.047584
0.0498364
0.0527016
0.0470565
0.0474616
0.0478894
0.0483476
0.0488226
0.049315
0.0498107
0.0502921
0.0507557
0.0512032
0.0516331
0.0520473
0.052452
0.0528534
0.0532588
0.0536783
0.0541243
0.0546091
0.0551515
0.0557746
0.0565059
0.0573855
0.0584634
0.0597873
0.0613921
0.0633131
0.0656123
0.068389
0.0717826
0.0759973
0.0813481
0.0883565
0.0979591
0.112083
0.135651
0.18548
0.284882
0.178996
0.134773
0.0493006
0.0488582
0.0483789
0.0478867
0.0473892
0.0468817
0.0463817
0.045896
0.0454257
0.0449767
0.044551
0.0441475
0.0437669
0.0434091
0.0430736
0.0427609
0.0424722
0.0422093
0.0419744
0.0417709
0.0416014
0.0414682
0.0413808
0.0413442
0.0413582
0.0414315
0.0415741
0.041794
0.0420992
0.0424989
0.0430037
0.0436257
0.0443811
0.0452929
0.0463988
0.0477592
0.0494732
0.0518038
0.0547797
0.0497336
0.0501608
0.0506123
0.0510952
0.0515948
0.0521126
0.0526343
0.0531409
0.0536297
0.0541018
0.0545559
0.054993
0.0554192
0.0558412
0.0562656
0.0567027
0.057164
0.0576633
0.0582199
0.0588557
0.0595998
0.0604937
0.061589
0.0629336
0.0645635
0.0665141
0.0688485
0.0716669
0.07511
0.0793836
0.0848
0.0918695
0.101482
0.115378
0.137529
0.17744
0.22267
0.175102
0.138562
0.0520963
0.0516281
0.0511201
0.0505978
0.0500687
0.0495286
0.0489958
0.0484775
0.0479758
0.0474955
0.0470394
0.0466065
0.0461972
0.0458114
0.0454481
0.0451081
0.0447923
0.0445021
0.0442396
0.0440086
0.043812
0.0436514
0.0435367
0.0434731
0.0434605
0.043507
0.043622
0.0438136
0.0440907
0.0444639
0.0449449
0.045548
0.0462924
0.0472043
0.0483253
0.0497199
0.0514948
0.0538982
0.0569708
0.0525535
0.0530038
0.0534795
0.0539874
0.0545121
0.0550559
0.0556036
0.0561363
0.0566504
0.0571481
0.0576268
0.0580878
0.0585373
0.0589802
0.0594239
0.0598792
0.0603571
0.0608721
0.0614425
0.0620913
0.0628493
0.0637569
0.0648682
0.0662326
0.0678844
0.0698605
0.0722226
0.0750704
0.0785432
0.082843
0.0882682
0.095298
0.104727
0.117989
0.137837
0.167974
0.192856
0.168956
0.141075
0.055043
0.0545477
0.05401
0.0534563
0.0528941
0.0523198
0.0517527
0.0512005
0.0506651
0.0501521
0.0496642
0.049201
0.048762
0.0483472
0.0479552
0.047587
0.0472432
0.0469253
0.0466353
0.0463767
0.0461524
0.045965
0.0458238
0.0457342
0.0456964
0.0457172
0.0458059
0.045971
0.0462221
0.0465704
0.0470293
0.0476152
0.0483496
0.049262
0.0503973
0.0518247
0.0536562
0.0561269
0.0592831
0.0555248
0.0559989
0.0564996
0.0570325
0.0575825
0.0581522
0.0587262
0.0592847
0.0598248
0.0603485
0.0608524
0.0613377
0.0618103
0.0622752
0.0627394
0.0632131
0.0637081