/*--------------------------------*- C++ -*----------------------------------*\
| =========                 |                                                 |
| \\      /  F ield         | OpenFOAM: The Open Source CFD Toolbox           |
|  \\    /   O peration     | Version:  2312                                  |
|   \\  /    A nd           | Website:  www.openfoam.com                      |
|    \\/     M anipulation  |                                                 |
\*---------------------------------------------------------------------------*/
FoamFile
{
    version     2.0;
    format      ascii;
    arch        "LSB;label=32;scalar=64";
    class       volVectorField;
    location    "350";
    object      U;
}
// * * * * * * * * * * * * * * * * * * * * * * * * * * * * * * * * * * * * * //

dimensions      [0 1 -1 0 0 0 0];

internalField   nonuniform List<vector> 
10720
(
(0.227211 27.6477 1.44239e-17)
(1.96449 29.9439 -1.32711e-17)
(4.13734 32.1623 0)
(6.63503 33.8953 -4.01072e-16)
(9.39116 35.2254 4.47801e-16)
(12.3374 36.1108 3.26567e-16)
(15.319 36.453 4.53392e-16)
(18.2399 36.2865 0)
(21.0153 35.6762 0)
(23.5621 34.6571 0)
(25.8436 33.3242 1.21302e-16)
(27.8129 31.7267 0)
(29.4231 29.8612 2.44538e-15)
(30.6577 27.768 0)
(31.4739 25.4623 0)
(31.8437 22.9751 0)
(31.6967 20.3077 -4.42966e-15)
(30.9554 17.4966 -6.86075e-15)
(29.4856 14.5539 6.41643e-15)
(27.1592 11.5442 0)
(23.8358 8.53177 6.38125e-15)
(19.5652 5.67698 -1.47626e-14)
(14.8882 3.22794 9.17964e-15)
(11.4414 1.4405 -3.36415e-16)
(10.0602 0.261216 0)
(10.6979 -0.358348 4.65609e-15)
(12.1166 -0.598964 6.00362e-17)
(13.6234 -0.71936 -1.40937e-15)
(14.8665 -0.8711 -4.56143e-15)
(15.69 -1.0865 -1.50861e-14)
(16.1237 -1.34675 6.2858e-15)
(16.2616 -1.62015 1.08494e-14)
(16.0609 -1.8659 8.83899e-15)
(15.5542 -2.06049 2.8936e-14)
(14.7249 -2.17952 -1.12533e-14)
(13.5763 -2.20841 -7.77253e-17)
(11.7303 -2.06523 2.24759e-17)
(9.73079 -1.81418 2.81586e-15)
(3.62655 -1.08768 1.25454e-14)
(-1.14284 25.1972 -7.35882e-19)
(-2.24875 22.4367 -1.33372e-17)
(-3.01426 19.3299 5.82423e-17)
(-3.31674 15.7337 -1.69145e-16)
(-2.9966 12.0189 -5.68337e-16)
(-2.02411 8.32125 1.01471e-15)
(-0.487033 4.95222 5.32789e-15)
(1.36407 2.18917 3.17754e-15)
(3.32231 -0.139152 0)
(5.55264 -2.15956 0)
(7.84843 -3.6615 2.11896e-15)
(9.96479 -4.62772 7.7063e-16)
(11.8353 -5.18629 -1.28233e-15)
(13.472 -5.46178 1.05428e-15)
(14.8998 -5.55104 1.73903e-15)
(16.1496 -5.51711 1.12066e-15)
(17.2524 -5.40759 1.427e-15)
(18.2403 -5.25142 9.46725e-16)
(19.1448 -5.06807 0)
(19.9874 -4.86034 0)
(20.7864 -4.62974 -1.2998e-15)
(21.5526 -4.3668 -5.90648e-17)
(22.2873 -4.05754 8.66279e-16)
(22.9597 -3.67695 -5.89942e-16)
(23.502 -3.2251 2.72645e-17)
(23.8969 -2.74545 0)
(24.1749 -2.2777 7.73719e-17)
(24.372 -1.77842 0)
(24.5036 -1.18113 0)
(24.5698 -0.513058 -9.67746e-18)
(24.5502 0.159839 0)
(24.4304 0.789596 1.17423e-16)
(24.2113 1.35359 1.61986e-16)
(23.9017 1.84541 4.60126e-16)
(23.5016 2.26733 1.22135e-16)
(23.0076 2.62725 -1.09076e-18)
(22.3173 2.92665 0)
(21.3672 3.1342 4.0922e-15)
(18.7648 3.31174 7.81323e-15)
(7.15404 23.9929 -8.25377e-18)
(9.04448 25.7199 -2.41386e-19)
(11.3479 27.2841 0)
(14.0037 28.5806 0)
(16.8653 29.5499 -1.31557e-16)
(19.9377 30.1317 -3.13399e-16)
(23.1084 30.2794 0)
(26.2445 30.0144 0)
(29.2924 29.3465 6.71049e-16)
(32.1691 28.3273 0)
(34.8186 27.0099 2.48064e-15)
(37.2339 25.4928 0)
(39.4237 23.8658 8.82627e-16)
(41.3998 22.1617 -8.66716e-16)
(43.1493 20.4112 1.73706e-15)
(44.6313 18.653 -3.45069e-15)
(45.8272 16.9106 3.65761e-15)
(46.6997 15.2131 3.32369e-15)
(47.188 13.5676 3.22839e-15)
(47.1794 11.9787 1.96076e-16)
(46.4798 10.3971 -3.35546e-15)
(44.8604 8.72409 3.29725e-15)
(42.18 6.82199 -1.98419e-16)
(38.6421 4.75818 0)
(35.1077 2.86653 0)
(31.9529 1.34583 0)
(29.1514 0.240039 1.94893e-16)
(26.7699 -0.550431 -4.26518e-17)
(24.9158 -1.15064 2.61679e-15)
(23.5645 -1.62225 2.67164e-17)
(22.5383 -1.9917 -1.98908e-17)
(21.6131 -2.27793 -7.64947e-17)
(20.6898 -2.50233 5.28763e-15)
(19.6841 -2.67106 -8.45474e-15)
(18.5059 -2.76928 -4.35838e-17)
(17.1177 -2.77924 -8.94193e-15)
(15.1478 -2.63229 0)
(13.0627 -2.36415 -6.75779e-16)
(7.02126 -1.46977 5.60079e-15)
(5.55906 22.1537 1.08811e-17)
(4.17396 20.109 -4.96777e-17)
(2.96012 17.7152 -6.02987e-16)
(2.03948 14.995 7.47403e-16)
(1.59163 12.0373 0)
(1.70535 8.9816 -1.63509e-15)
(2.40236 6.04024 -1.23161e-15)
(3.58739 3.43927 -9.54515e-15)
(5.07995 1.14221 2.75932e-15)
(6.84338 -0.757934 -1.99595e-15)
(8.73712 -2.12417 2.45888e-15)
(10.5863 -3.01215 -6.89912e-16)
(12.3094 -3.5498 0)
(13.8826 -3.83689 -4.51408e-16)
(15.3005 -3.95442 5.98228e-17)
(16.5746 -3.95465 -9.96417e-16)
(17.7213 -3.882 0)
(18.7643 -3.76155 0)
(19.728 -3.61116 -1.02449e-16)
(20.635 -3.42806 9.87344e-17)
(21.501 -3.20992 -1.15953e-15)
(22.338 -2.93938 -1.24684e-16)
(23.1481 -2.59507 5.46908e-17)
(23.9086 -2.13662 5.93232e-16)
(24.5675 -1.57144 -4.03881e-16)
(25.0988 -0.963325 -2.86748e-16)
(25.5133 -0.33646 0)
(25.8053 0.273761 0)
(25.9669 0.821297 0)
(26.0004 1.28864 9.64987e-18)
(25.9348 1.68399 0)
(25.7969 2.03012 0)
(25.597 2.34669 -2.38421e-16)
(25.336 2.6422 -1.32089e-16)
(25.0048 2.92009 -1.00173e-16)
(24.6044 3.18327 4.74274e-16)
(24.0358 3.42891 -1.81105e-15)
(23.473 3.6481 -3.20828e-15)
(21.4976 3.71657 -5.38313e-15)
(8.30381 22.1003 -1.74986e-18)
(9.64537 23.626 9.24358e-18)
(11.2778 25.1119 -8.40108e-18)
(13.154 26.4859 -3.81832e-17)
(15.2215 27.6292 -1.72411e-16)
(17.4796 28.5185 6.0278e-16)
(19.8537 29.1149 -4.22649e-16)
(22.2696 29.3808 -4.98597e-16)
(24.67 29.3162 8.77959e-18)
(26.9971 28.9333 -6.56967e-16)
(29.1978 28.2517 6.1415e-16)
(31.2379 27.2967 -1.59942e-15)
(33.0904 26.098 -7.61004e-16)
(34.7381 24.6886 0)
(36.1793 23.1026 -1.84692e-15)
(37.4731 21.351 3.69235e-15)
(38.65 19.4641 0)
(39.7299 17.4982 -6.94233e-15)
(40.7734 15.5028 -3.43256e-15)
(41.8258 13.5517 3.95359e-16)
(42.9484 11.6859 -3.80371e-16)
(44.0604 9.89383 -1.72946e-16)
(44.8715 8.0352 -2.44682e-15)
(44.9375 6.02626 1.27683e-15)
(44.1666 4.02948 0)
(42.8121 2.28448 1.2231e-15)
(41.0983 0.902755 -1.46122e-16)
(39.0747 -0.182915 0)
(36.698 -1.07312 1.92492e-15)
(34.0087 -1.80061 3.55788e-15)
(31.2173 -2.36347 -6.16968e-15)
(28.6107 -2.76891 -5.15596e-15)
(26.3409 -3.03918 -1.02117e-16)
(24.3378 -3.19757 -6.74865e-15)
(22.4105 -3.25655 -5.15892e-15)
(20.4301 -3.21319 6.9889e-15)
(18.0234 -3.02169 0)
(15.5352 -2.65244 -4.56048e-16)
(9.73673 -1.88305 -7.7483e-15)
(7.20959 20.4931 -1.62861e-17)
(6.24997 18.7384 -6.06006e-17)
(5.45258 16.6731 2.4201e-16)
(4.81224 14.3627 0)
(4.48403 11.8818 4.63097e-16)
(4.5136 9.29986 0)
(4.9285 6.75402 3.51308e-15)
(5.69796 4.40242 2.07054e-15)
(6.78389 2.29704 1.79754e-15)
(8.13862 0.50754 0)
(9.63619 -0.905335 -2.5176e-15)
(11.1561 -1.96279 -5.30872e-16)
(12.6268 -2.7261 2.38448e-15)
(14.0128 -3.25329 0)
(15.2974 -3.59495 -1.09295e-15)
(16.4785 -3.79438 -3.28733e-16)
(17.5624 -3.88955 1.34858e-15)
(18.5629 -3.90668 6.96364e-16)
(19.4967 -3.86393 1.89885e-16)
(20.3812 -3.76658 -1.03625e-16)
(21.2289 -3.61674 1.06213e-15)
(22.0487 -3.40619 0)
(22.8407 -3.1215 0)
(23.5856 -2.74226 2.65121e-17)
(24.2403 -2.28351 0)
(24.7805 -1.79444 5.97819e-16)
(25.2163 -1.2972 -7.60935e-18)
(25.5615 -0.796766 -3.15682e-17)
(25.8214 -0.289623 0)
(25.9964 0.226068 -1.01234e-18)
(26.0884 0.750031 -8.8543e-18)
(26.0989 1.27189 0)
(26.0279 1.7735 1.06084e-16)
(25.875 2.23924 0)
(25.6308 2.66168 0)
(25.2953 3.03918 4.30958e-17)
(24.7697 3.3735 -6.08734e-17)
(24.1692 3.62609 3.36015e-15)
(22.3696 3.72739 1.07644e-14)
(10.9051 20.2249 -1.30568e-17)
(12.1615 21.5199 -1.07151e-17)
(13.6682 22.7811 -1.78573e-19)
(15.4019 23.9342 -6.17443e-18)
(17.3164 24.8891 0)
(19.4178 25.6267 0)
(21.6503 26.1032 -7.01444e-16)
(23.9534 26.2836 8.46912e-16)
(26.2806 26.1599 0)
(28.577 25.734 -1.03588e-15)
(30.7913 25.0188 -1.32206e-15)
(32.8842 24.0374 -1.24817e-15)
(34.82 22.8242 1.49519e-15)
(36.5721 21.4162 1.41123e-15)
(38.13 19.8464 0)
(39.4541 18.1666 2.23658e-15)
(40.4989 16.4349 7.65928e-16)
(41.2606 14.6878 6.17868e-15)
(41.7491 12.9624 3.731e-16)
(42.0126 11.2934 -3.66953e-16)
(42.1497 9.70765 3.1017e-15)
(42.3139 8.19932 -5.04289e-16)
(42.6095 6.6846 2.78025e-15)
(42.8895 5.07514 1.17609e-15)
(42.8493 3.4369 -7.25669e-17)
(42.3996 1.95696 -1.09522e-15)
(41.7008 0.742588 7.97084e-18)
(40.9073 -0.25398 -8.0524e-18)
(40.0021 -1.12331 -1.77794e-15)
(38.8219 -1.89615 -4.64215e-17)
(37.1783 -2.55655 2.89718e-15)
(34.9685 -3.07704 -4.81764e-15)
(32.2949 -3.43966 -3.77273e-15)
(29.4555 -3.646 -3.07919e-18)
(26.6816 -3.70861 4.56003e-15)
(24.0037 -3.63014 0)
(21.073 -3.39166 3.2407e-15)
(18.0864 -2.90949 3.70707e-16)
(12.3171 -2.20151 3.10768e-15)
(9.84987 18.8701 -2.98036e-17)
(8.90315 17.4013 8.13627e-17)
(8.07691 15.6685 3.52394e-16)
(7.38569 13.7115 0)
(6.96033 11.5995 -4.08852e-16)
(6.83579 9.38113 0)
(7.03814 7.15994 -2.71553e-15)
(7.54172 5.0586 -1.18512e-16)
(8.32438 3.13476 1.28664e-15)
(9.35328 1.4529 1.1229e-15)
(10.5374 0.0662781 3.79271e-17)
(11.7923 -1.01936 1.864e-15)
(13.0579 -1.83579 -1.19696e-15)
(14.2935 -2.42393 3.79261e-16)
(15.4736 -2.82313 1.28655e-15)
(16.5863 -3.07246 1.41045e-15)
(17.6287 -3.20604 -1.25876e-15)
(18.6049 -3.25095 7.61179e-18)
(19.5247 -3.22685 0)
(20.3997 -3.14319 1.29771e-15)
(21.239 -3.00319 6.30062e-17)
(22.0489 -2.80138 -9.65306e-16)
(22.8285 -2.5265 0)
(23.5613 -2.16104 2.66992e-17)
(24.2115 -1.71066 0)
(24.7552 -1.21288 -2.8742e-16)
(25.1973 -0.690756 0)
(25.5489 -0.155346 3.01291e-17)
(25.8148 0.382861 -8.02597e-19)
(25.9977 0.908824 3.99298e-19)
(26.103 1.40672 8.52836e-18)
(26.1371 1.86088 1.83411e-19)
(26.1039 2.26811 0)
(26.005 2.63151 3.04065e-17)
(25.8309 2.95772 1.09456e-18)
(25.5775 3.25125 -5.74201e-16)
(25.1462 3.5202 4.31484e-15)
(24.6141 3.69601 1.07701e-17)
(22.9849 3.75933 0)
(12.4356 18.8261 -1.81848e-17)
(13.4919 19.9754 -3.63367e-18)
(14.7659 21.1174 -1.63785e-19)
(16.223 22.19 1.26531e-16)
(17.8232 23.1103 -4.75888e-17)
(19.5874 23.8736 -1.84427e-16)
(21.4687 24.4406 3.00704e-16)
(23.4201 24.7757 0)
(25.4111 24.869 1.19531e-15)
(27.3952 24.7139 5.58967e-16)
(29.3312 24.3118 0)
(31.1844 23.6746 1.20186e-15)
(32.9205 22.8214 -6.38217e-16)
(34.5128 21.7736 1.78068e-15)
(35.9402 20.5549 0)
(37.1826 19.1891 -2.97705e-15)
(38.2519 17.6718 2.79813e-15)
(39.1426 16.0259 -1.65167e-16)
(39.8472 14.2845 0)
(40.359 12.494 3.00461e-15)
(40.6841 10.694 -3.01717e-15)
(40.8489 8.91507 -1.56298e-16)
(40.8962 7.14937 -2.3923e-15)
(40.8186 5.391 -2.26583e-15)
(40.5234 3.71144 0)
(39.9718 2.23113 0)
(39.2751 1.00736 -2.57987e-16)
(38.5787 -0.00828817 -2.85281e-17)
(37.9468 -0.895743 1.75419e-15)
(37.3603 -1.69012 -4.59977e-17)
(36.7519 -2.39454 4.56959e-17)
(35.9836 -3.00515 4.70016e-15)
(34.8199 -3.50405 0)
(33.0167 -3.85303 1.21015e-14)
(30.5251 -4.01639 -3.95228e-17)
(27.5881 -3.97618 0)
(24.246 -3.73088 -1.64711e-17)
(20.7868 -3.16199 0)
(14.9231 -2.46957 -2.69027e-15)
(11.5428 17.6302 2.9539e-17)
(10.7393 16.3468 -1.86005e-16)
(10.0176 14.832 -4.40314e-17)
(9.38599 13.1244 8.20613e-16)
(8.96057 11.2883 -1.29548e-15)
(8.76608 9.35179 -1.6928e-15)
(8.83358 7.39068 2.05659e-15)
(9.15413 5.50464 -2.19001e-15)
(9.71829 3.75605 -9.71657e-16)
(10.502 2.19718 -8.55919e-16)
(11.4405 0.86877 1.64208e-15)
(12.4707 -0.216123 -1.5678e-15)
(13.5449 -1.075 -6.8357e-16)
(14.6251 -1.73486 6.64674e-16)
(15.6838 -2.22152 -1.43723e-15)
(16.705 -2.56462 2.64044e-16)
(17.6803 -2.79048 0)
(18.608 -2.92136 -9.94463e-16)
(19.492 -2.97392 3.51328e-16)
(20.3391 -2.95797 -1.36095e-15)
(21.1554 -2.87693 0)
(21.9447 -2.72759 8.39795e-16)
(22.705 -2.50184 6.5774e-16)
(23.4215 -2.18889 -4.92213e-16)
(24.0637 -1.79479 0)
(24.6084 -1.35142 -3.15905e-16)
(25.0563 -0.884012 0)
(25.4159 -0.405336 0)
(25.6915 0.075237 0)
(25.8849 0.547587 2.40919e-17)
(25.9999 1.00351 0)
(26.0418 1.44299 0)
(26.0146 1.86612 -1.47666e-17)
(25.9216 2.26937 -3.06185e-17)
(25.7575 2.64969 0)
(25.5241 3.00272 -6.73758e-16)
(25.1356 3.329 8.45217e-17)
(24.677 3.54901 0)
(23.3014 3.66104 -5.39104e-15)
(13.9268 17.5921 2.23083e-17)
(14.8866 18.6092 -1.58391e-17)
(16.0396 19.6256 0)
(17.3538 20.5829 8.92695e-18)
(18.7906 21.4078 -1.12296e-16)
(20.3795 22.1007 1.73288e-16)
(22.0804 22.6235 4.66071e-17)
(23.8555 22.944 -7.5023e-16)
(25.684 23.0491 -9.48925e-17)
(27.5277 22.9275 1.14113e-15)
(29.3514 22.5748 -4.07724e-16)
(31.1252 21.9946 9.25278e-16)
(32.8159 21.197 4.64868e-16)
(34.3955 20.1969 3.34536e-16)
(35.8394 19.0127 0)
(37.1281 17.6659 -6.44639e-16)
(38.2346 16.1966 -1.41285e-15)
(39.1313 14.6555 -5.18318e-15)
(39.8081 13.0825 1.52845e-15)
(40.2724 11.507 -1.93105e-15)
(40.542 9.94926 -3.0127e-16)
(40.642 8.40674 0)
(40.582 6.84808 2.15115e-15)
(40.3347 5.25441 1.39375e-16)
(39.8536 3.68862 -6.48721e-17)
(39.1405 2.27014 -9.25894e-16)
(38.2859 1.07387 2.1496e-16)
(37.4048 0.0775344 4.48573e-16)
(36.557 -0.784327 -1.6746e-15)
(35.7532 -1.54815 -8.90389e-17)
(35.0015 -2.22202 2.83816e-15)
(34.3253 -2.81041 4.55668e-15)
(33.7087 -3.31769 0)
(33.0182 -3.73748 -1.92305e-17)
(31.917 -4.03421 -4.5787e-15)
(30.0273 -4.13066 0)
(27.0852 -3.96941 -5.9058e-15)
(23.5143 -3.38239 0)
(17.5839 -2.71535 2.41895e-15)
(13.107 16.5375 -2.9444e-17)
(12.3657 15.4127 7.54522e-17)
(11.6862 14.0813 -1.87388e-16)
(11.0782 12.5768 0)
(10.6439 10.96 5.50507e-16)
(10.3997 9.24941 2.76874e-15)
(10.3731 7.50061 0)
(10.5649 5.80039 -1.57077e-15)
(10.9699 4.21099 -1.49454e-15)
(11.5675 2.77147 1.49308e-15)
(12.3119 1.51477 -5.94296e-17)
(13.1559 0.458022 6.46837e-16)
(14.0631 -0.407232 3.37046e-17)
(15.0014 -1.09758 1.69865e-15)
(15.9447 -1.62881 1.51949e-15)
(16.876 -2.0222 -1.4244e-15)
(17.784 -2.29769 1.99993e-16)
(18.6625 -2.47355 -3.72001e-16)
(19.5106 -2.56447 1.72298e-16)
(20.3308 -2.58032 9.99032e-16)
(21.1257 -2.52565 1.29335e-16)
(21.8964 -2.39961 -9.2824e-17)
(22.6395 -2.19652 -5.58272e-16)
(23.3415 -1.90893 0)
(23.9759 -1.54124 2.25879e-17)
(24.5207 -1.11879 5.91232e-16)
(24.9729 -0.664943 -2.95949e-18)
(25.3386 -0.192133 2.96314e-18)
(25.6212 0.290654 0)
(25.8221 0.772904 -2.27588e-17)
(25.9446 1.24528 0)
(25.9937 1.69805 0)
(25.9731 2.1213 1.30916e-17)
(25.886 2.50899 9.79385e-17)
(25.7265 2.85953 0)
(25.4951 3.16966 6.39838e-16)
(25.1126 3.44508 -4.49613e-15)
(24.6512 3.59201 2.18572e-17)
(23.4322 3.6288 5.1542e-15)
(15.126 16.549 4.04727e-19)
(15.9878 17.4623 -1.50592e-17)
(17.0229 18.3827 5.87785e-18)
(18.1972 19.2555 -5.70664e-18)
(19.4724 20.0155 7.69361e-17)
(20.8836 20.6691 0)
(22.394 21.1829 -3.33208e-16)
(23.9716 21.5278 6.57271e-18)
(25.6039 21.6926 -3.41267e-16)
(27.2584 21.6656 -6.91612e-16)
(28.9066 21.4397 0)
(30.5243 21.0146 -1.67951e-15)
(32.0812 20.3951 -1.44634e-15)
(33.5504 19.5909 -3.52733e-15)
(34.9082 18.6159 0)
(36.1304 17.4896 -2.1937e-15)
(37.1974 16.2327 -2.30313e-15)
(38.1011 14.8548 2.44964e-15)
(38.8329 13.3787 -2.40465e-15)
(39.3889 11.8371 2.22923e-15)
(39.7734 10.2618 2.7518e-16)
(39.9945 8.67765 -2.36604e-15)
(40.0494 7.08581 0)
(39.9017 5.48713 -2.10198e-15)
(39.5024 3.93405 1.26339e-16)
(38.8534 2.52223 9.64778e-16)
(38.0329 1.31665 0)
(37.1408 0.303409 -3.29353e-17)
(36.2279 -0.572871 7.119e-17)
(35.2968 -1.34524 2.74317e-15)
(34.3479 -2.02022 -2.54343e-15)
(33.4077 -2.60131 -4.40579e-15)
(32.5186 -3.09386 3.71477e-15)
(31.7352 -3.50197 -6.43203e-17)
(31.0443 -3.82248 4.70645e-15)
(30.2517 -4.01991 6.08503e-15)
(28.6131 -4.00906 3.08111e-15)
(25.8264 -3.51126 -8.02332e-18)
(20.1974 -2.92661 -2.98602e-18)
(14.3842 15.6043 1.18821e-17)
(13.7102 14.6029 1.4542e-16)
(13.0802 13.4156 1.95959e-16)
(12.5034 12.0728 -3.73351e-16)
(12.0723 10.6327 -1.48466e-15)
(11.7991 9.10531 4.94189e-16)
(11.7086 7.53207 1.25754e-15)
(11.8081 5.99164 3.17819e-15)
(12.0948 4.54422 1.27373e-15)
(12.5511 3.21785 -1.19112e-15)
(13.143 2.03959 -3.87615e-17)
(13.8346 1.0268 -5.72625e-16)
(14.5983 0.174738 0)
(15.4081 -0.527017 -2.71186e-17)
(16.2411 -1.08784 -9.30321e-16)
(17.0815 -1.52274 4.0566e-16)
(17.9169 -1.84609 -3.9844e-16)
(18.7387 -2.07157 0)
(19.5428 -2.21076 6.02791e-16)
(20.3282 -2.27216 -1.05008e-15)
(21.0947 -2.25983 0)
(21.8411 -2.1737 7.68136e-16)
(22.5629 -2.00983 0)
(23.2472 -1.76354 -2.86686e-17)
(23.871 -1.43905 2.86081e-17)
(24.413 -1.05725 -2.89615e-16)
(24.8677 -0.640077 -5.37007e-18)
(25.2388 -0.200982 -3.0601e-18)
(25.5286 0.249878 6.74167e-19)
(25.7383 0.701303 -3.68151e-17)
(25.8706 1.14251 -4.33663e-17)
(25.9298 1.56551 5.2806e-17)
(25.9193 1.96677 1.20808e-18)
(25.8416 2.34276 3.26124e-17)
(25.6905 2.69199 0)
(25.4657 3.00999 1.37641e-17)
(25.0932 3.298 2.10707e-15)
(24.6335 3.46061 -1.27921e-17)
(23.507 3.50383 4.79363e-15)
(16.1811 15.6303 4.47364e-18)
(16.9712 16.4542 2.27718e-17)
(17.9186 17.2881 0)
(18.9894 18.0807 -2.57836e-17)
(20.1455 18.7728 2.54596e-17)
(21.4245 19.3747 0)
(22.7933 19.8554 -1.23013e-16)
(24.2241 20.189 9.70774e-16)
(25.7098 20.3652 -1.35085e-15)
(27.224 20.3717 4.30789e-16)
(28.7431 20.1996 5.88716e-16)
(30.248 19.8449 2.13309e-15)
(31.7124 19.3077 1.53031e-15)
(33.1122 18.5916 1.82885e-15)
(34.4239 17.7051 4.84593e-16)
(35.6238 16.6609 1.60792e-15)
(36.6919 15.4747 2.21459e-15)
(37.6064 14.1756 2.10144e-15)
(38.3496 12.7988 -1.54161e-15)
(38.9159 11.373 -4.70962e-15)
(39.3091 9.92167 0)
(39.5396 8.45732 8.67442e-17)
(39.6108 6.97797 1.86701e-15)
(39.4998 5.48378 2.0013e-15)
(39.1655 4.01671 -1.15598e-16)
(38.6009 2.65893 -8.59146e-16)
(37.8636 1.47455 6.17488e-18)
(37.0374 0.463132 -4.39886e-16)
(36.1685 -0.417008 4.65615e-17)
(35.2571 -1.19373 -5.09958e-15)
(34.2936 -1.87165 -9.10661e-18)
(33.2802 -2.45124 -6.92124e-17)
(32.2294 -2.93481 -3.56745e-15)
(31.1769 -3.32375 -6.36639e-17)
(30.176 -3.61545 -4.52527e-15)
(29.363 -3.79838 -1.23134e-14)
(28.5117 -3.85058 3.18426e-15)
(27.1015 -3.4893 4.02274e-16)
(22.4578 -3.06395 2.14478e-15)
(15.4962 14.7796 -5.27799e-17)
(14.8723 13.8817 -1.96831e-16)
(14.2801 12.8148 -1.42059e-16)
(13.7294 11.6061 -3.62677e-16)
(13.3038 10.3124 8.2392e-16)
(13.0122 8.93658 -5.93971e-17)
(12.8776 7.51091 -3.11124e-15)
(12.9101 6.10888 -1.07952e-15)
(13.1077 4.78685 1.70417e-17)
(13.4556 3.56451 0)
(13.9272 2.46483 -1.00806e-15)
(14.4944 1.50406 9.40762e-16)
(15.1363 0.678847 -9.06538e-16)
(15.8323 -0.0177272 -4.64505e-16)
(16.5636 -0.590652 3.87857e-16)
(17.3165 -1.05022 3.85936e-16)
(18.0791 -1.40586 1.38482e-15)
(18.8418 -1.66694 -3.28165e-16)
(19.5987 -1.84195 -5.59035e-16)
(20.3463 -1.93768 0)
(21.0819 -1.95751 -8.5096e-16)
(21.8024 -1.90185 -6.33001e-16)
(22.502 -1.76797 -1.3314e-17)
(23.1684 -1.55314 -6.8392e-17)
(23.7806 -1.26126 -2.2013e-17)
(24.3184 -0.909115 3.36532e-16)
(24.7742 -0.516702 -6.26702e-18)
(25.1493 -0.0976371 5.01409e-17)
(25.4452 0.337756 8.43891e-18)
(25.6622 0.77852 3.3397e-17)
(25.8024 1.21415 -1.27457e-17)
(25.8695 1.63647 -1.27449e-16)
(25.8664 2.03744 -1.21892e-16)
(25.7953 2.41088 -1.17393e-16)
(25.6506 2.7534 -6.97796e-18)
(25.4315 3.05763 4.23716e-18)
(25.0688 3.32355 -2.15536e-15)
(24.6198 3.44652 -3.21451e-15)
(23.5731 3.43479 -4.41455e-15)
(17.092 14.8186 -1.37271e-17)
(17.8198 15.5667 -8.52221e-18)
(18.6912 16.3268 -2.12689e-17)
(19.6725 17.051 6.81036e-18)
(20.7255 17.6849 4.93253e-17)
(21.889 18.2417 -1.39684e-16)
(23.1324 18.6937 4.6218e-16)
(24.4307 19.0177 0)
(25.7811 19.2058 4.10856e-16)
(27.1606 19.2461 1.23276e-17)
(28.5504 19.1296 -5.03939e-16)
(29.9358 18.8514 -1.96199e-15)
(31.294 18.409 -7.98337e-16)
(32.6036 17.8033 0)
(33.8431 17.0391 0)
(34.9896 16.1256 0)
(36.0215 15.0777 0)
(36.9206 13.9117 -2.04595e-15)
(37.673 12.6453 2.01574e-15)
(38.2689 11.3019 1.97247e-15)
(38.7053 9.90602 -1.59107e-15)
(38.9828 8.47927 1.40185e-15)
(39.0989 7.03341 -1.46295e-15)
(39.0353 5.58006 -1.08015e-16)
(38.7619 4.15668 -5.04884e-17)
(38.2725 2.82953 8.64912e-16)
(37.6133 1.65488 1.86973e-16)
(36.8567 0.63929 0)
(36.0479 -0.248946 0)
(35.1918 -1.03425 4.17491e-17)
(34.2799 -1.72121 0)
(33.3083 -2.30932 3.76904e-15)
(32.2728 -2.79892 -3.34403e-15)
(31.1721 -3.18746 -5.37015e-15)
(30.0016 -3.4679 8.43596e-15)
(28.8605 -3.62184 5.96366e-15)
(27.8185 -3.64096 -3.1778e-15)
(27.241 -3.33308 -8.5459e-16)
(23.9935 -3.08604 -2.1618e-15)
(16.4572 14.0471 0)
(15.8772 13.2356 5.4976e-17)
(15.3195 12.2695 2.69605e-16)
(14.7937 11.1736 -1.16637e-15)
(14.377 10.0026 1.02946e-15)
(14.0745 8.75432 -8.27142e-16)
(13.9096 7.45438 9.66779e-18)
(13.8929 6.1728 8.16506e-16)
(14.0227 4.96132 8.63315e-16)
(14.2867 3.83404 0)
(14.6631 2.81034 4.14784e-16)
(15.129 1.90511 -1.26811e-15)
(15.6683 1.11508 2.00935e-15)
(16.2651 0.435043 3.6583e-16)
(16.9042 -0.13781 -7.44694e-16)
(17.5744 -0.610349 -6.93366e-16)
(18.2652 -0.9885 -6.372e-16)
(18.9674 -1.27817 0)
(19.6742 -1.48494 0)
(20.3803 -1.61351 0)
(21.0815 -1.66628 7.93723e-16)
(21.7729 -1.64347 0)
(22.4479 -1.54302 -5.11633e-16)
(23.0944 -1.3634 -6.55118e-17)
(23.6929 -1.10816 -3.91219e-16)
(24.2243 -0.791106 -2.95583e-16)
(24.6794 -0.430231 0)
(25.0574 -0.039233 -4.13331e-17)
(25.3586 0.371195 -8.8888e-18)
(25.5828 0.789915 1.64836e-18)
(25.7313 1.20604 1.1392e-16)
(25.8072 1.61031 -2.16908e-17)
(25.8131 1.99636 1.17083e-16)
(25.7506 2.35838 -1.72629e-16)
(25.614 2.69277 0)
(25.4024 2.99154 -1.349e-17)
(25.0508 3.25234 -5.14681e-17)
(24.614 3.37065 3.04458e-15)
(23.6446 3.34527 -2.59187e-17)
(17.8938 14.0913 1.59749e-17)
(18.5697 14.7734 0)
(19.3778 15.4683 6.02522e-17)
(20.2845 16.131 -2.52562e-17)
(21.2523 16.7111 -3.06682e-17)
(22.3201 17.2239 1.30683e-16)
(23.4591 17.6439 -2.03233e-16)
(24.6466 17.951 -2.4731e-16)
(25.8826 18.1383 0)
(27.1473 18.1951 -4.3428e-16)
(28.4257 18.1125 -4.66461e-16)
(29.7066 17.8849 4.63368e-16)
(30.9707 17.5079 1.73558e-15)
(32.1999 16.9794 6.9775e-16)
(33.375 16.301 -2.11814e-15)
(34.4742 15.4781 -1.53251e-15)
(35.4769 14.5205 1.21277e-15)
(36.3644 13.4418 8.96934e-16)
(37.1185 12.2639 -4.40597e-16)
(37.7261 11.01 4.4138e-16)
(38.1808 9.70211 1.11904e-15)
(38.4811 8.35777 2.08392e-16)
(38.6227 6.98888 -1.99585e-16)
(38.5911 5.60858 -1.33943e-15)
(38.3632 4.24951 0)
(37.9329 2.96738 -7.24468e-16)
(37.3363 1.8143 -3.48756e-16)
(36.6349 0.803904 -3.21979e-16)
(35.8725 -0.0856346 -1.19205e-15)
(35.059 -0.87466 4.47059e-15)
(34.191 -1.56731 1.84332e-15)
(33.2673 -2.16264 5.88331e-18)
(32.2845 -2.66026 4.11489e-17)
(31.2349 -3.05634 0)
(30.0874 -3.34101 -3.94577e-15)
(28.8612 -3.48969 0)
(27.4795 -3.48131 0)
(26.8412 -3.13427 4.40788e-16)
(24.7094 -2.99193 4.38184e-18)
(17.3011 13.3881 -5.38832e-17)
(16.7584 12.6505 1.82849e-16)
(16.2305 11.7709 1.22628e-17)
(15.7276 10.7714 2.58847e-16)
(15.3211 9.70508 -9.34733e-16)
(15.0134 8.56557 6.88083e-16)
(14.8272 7.37421 3.53631e-17)
(14.7742 6.19819 -6.763e-16)
(14.8522 5.0844 -6.63341e-16)
(15.0506 4.04316 -7.07262e-16)
(15.3511 3.09127 -1.40446e-15)
(15.7344 2.24207 0)
(16.1879 1.49172 -7.22172e-16)
(16.6989 0.835663 -2.55812e-17)
(17.2556 0.272425 0)
(17.8492 -0.203002 -6.09072e-16)
(18.4712 -0.59386 -2.90548e-16)
(19.1131 -0.903454 -2.73757e-16)
(19.7684 -1.13488 9.45305e-16)
(20.4309 -1.29072 8.44908e-16)
(21.0952 -1.37197 -8.76458e-17)
(21.7555 -1.37845 6.55319e-16)
(22.4042 -1.30834 1.29533e-16)
(23.0294 -1.16063 -6.26155e-17)
(23.6129 -0.938555 3.46216e-16)
(24.1361 -0.653433 2.11916e-17)
(24.5888 -0.321086 0)
(24.9682 0.0451443 0)
(25.2735 0.434421 -1.7443e-18)
(25.5039 0.835719 4.24278e-18)
(25.66 1.23805 -1.33395e-16)
(25.7439 1.63212 -2.10694e-17)
(25.7579 2.01011 1.88192e-16)
(25.7032 2.36482 1.63315e-16)
(25.5743 2.69146 9.16525e-18)
(25.3699 2.98012 4.36164e-18)
(25.0303 3.22631 3.99213e-15)
(24.6074 3.32285 -2.90221e-15)
(23.7157 3.26761 2.40657e-17)
(18.602 13.4346 6.12918e-18)
(19.2328 14.059 0)
(19.9861 14.6964 -3.57219e-17)
(20.8284 15.3043 0)
(21.7226 15.8364 -7.25225e-17)
(22.7076 16.3088 7.01943e-17)
(23.7558 16.6986 1.53696e-16)
(24.8466 16.9876 2.32629e-16)
(25.9814 17.1707 0)
(27.143 17.2383 -2.86706e-16)
(28.3195 17.1824 4.76808e-16)
(29.5026 16.997 -9.79674e-16)
(30.676 16.6772 -5.49051e-16)
(31.8243 16.2195 -5.59838e-16)
(32.9307 15.6233 1.34642e-15)
(33.9756 14.8911 1.46044e-15)
(34.9392 14.03 -1.57052e-15)
(35.8027 13.0511 -1.57147e-15)
(36.5491 11.9684 0)
(37.164 10.8003 4.05437e-16)
(37.6376 9.56621 -7.84824e-16)
(37.964 8.28562 1.91808e-16)
(38.1361 6.97513 2.59233e-18)
(38.1408 5.65241 3.15908e-15)
(37.9595 4.34729 -1.75028e-16)
(37.5866 3.1057 1.09616e-16)
(37.0497 1.97391 3.21116e-16)
(36.4005 0.9698 3.40378e-16)
(35.6798 0.0798177 1.022e-15)
(34.9011 -0.712066 -2.04974e-15)
(34.0647 -1.40921 -1.6831e-15)
(33.1728 -2.01016 -6.59999e-15)
(32.2259 -2.51404 5.67229e-15)
(31.2221 -2.91685 -8.0326e-17)
(30.1337 -3.20863 3.65854e-15)
(28.9716 -3.36167 -1.11726e-16)
(27.5276 -3.35892 6.11183e-17)
(26.5201 -2.96193 4.15647e-18)
(24.8899 -2.8215 -1.90272e-15)
(18.0462 12.791 2.65092e-17)
(17.5363 12.1172 -9.39865e-17)
(17.0354 11.3123 1.85014e-16)
(16.5537 10.3964 0)
(16.1583 9.42046 5.43481e-16)
(15.8493 8.37481 0)
(15.6485 7.27848 0)
(15.5685 6.19539 0)
(15.6066 5.16831 1.22617e-15)
(15.7535 4.20488 -6.05751e-16)
(15.9932 3.31994 6.84991e-16)
(16.3091 2.52552 0)
(16.6907 1.81697 0)
(17.1282 1.18967 -6.20161e-16)
(17.6119 0.64273 0)
(18.1357 0.172302 5.64314e-16)
(18.6927 -0.223519 1.29672e-17)
(19.276 -0.54596 0)
(19.8795 -0.796051 -6.71891e-16)
(20.497 -0.974649 -9.95686e-16)
(21.1225 -1.08151 -6.93417e-16)
(21.7495 -1.11564 -6.03326e-16)
(22.3701 -1.07501 1.03383e-15)
(22.9726 -0.958756 0)
(23.5393 -0.769718 3.46578e-16)
(24.0524 -0.517049 3.20178e-16)
(24.5009 -0.214611 1.19448e-16)
(24.8804 0.124812 0)
(25.1889 0.490333 -8.82526e-18)
(25.4248 0.870961 -5.25969e-17)
(25.588 1.25568 1.45929e-16)
(25.68 1.63465 -2.0163e-17)
(25.7023 2.00006 -1.70126e-16)
(25.656 2.34446 2.03575e-16)
(25.5353 2.66243 -2.39732e-18)
(25.3389 2.9429 9.16523e-18)
(25.0119 3.17916 -3.87084e-15)
(24.6034 3.26444 2.68732e-15)
(23.7857 3.19129 6.78678e-15)
(19.2324 12.8369 2.85254e-18)
(19.8238 13.4105 -1.7958e-17)
(20.5292 13.9966 0)
(21.3156 14.5553 -1.5135e-17)
(22.1463 15.0436 0)
(23.0597 15.4783 0)
(24.0293 15.8386 1.95701e-17)
(25.0358 16.1082 2.01888e-16)
(26.0822 16.2831 4.68106e-16)
(27.1531 16.355 1.1998e-15)
(28.2387 16.3169 6.80745e-16)
(29.3332 16.1628 7.87756e-16)
(30.423 15.8876 0)
(31.4955 15.4865 1.54094e-15)
(32.5361 14.9573 -5.46864e-16)
(33.5271 14.3006 0)
(34.4504 13.5202 1.30848e-15)
(35.2877 12.624 1.49897e-15)
(36.0221 11.6239 0)
(36.6373 10.5366 1.43737e-15)
(37.121 9.38008 -1.40747e-15)
(37.465 8.17221 0)
(37.6609 6.92999 -1.69318e-16)
(37.6968 5.6722 2.88513e-17)
(37.5577 4.42588 8.19666e-17)
(37.2378 3.22945 1.24553e-15)
(36.7579 2.1241 -4.52744e-18)
(36.1603 1.131 -3.33145e-17)
(35.4818 0.24411 -2.78656e-17)
(34.7376 -0.548222 6.18775e-17)
(33.9307 -1.24807 1.68245e-15)
(33.0644 -1.85314 5.92441e-15)
(32.1413 -2.36176 4.80279e-17)
(31.1637 -2.76932 -4.27322e-15)
(30.1117 -3.06663 -3.29686e-15)
(29.0098 -3.22279 -4.78055e-15)
(27.6676 -3.23536 -2.70198e-15)
(26.4497 -2.82395 1.97835e-17)
(24.9077 -2.62531 1.80989e-15)
(18.709 12.2458 -6.03394e-17)
(18.2281 11.628 -2.24718e-16)
(17.7516 10.8885 4.45263e-16)
(17.2898 10.0459 0)
(16.9056 9.14868 8.74111e-16)
(16.5983 8.1852 0)
(16.388 7.1727 -4.79478e-16)
(16.2877 6.17199 1.9238e-15)
(16.295 5.22214 -1.48819e-15)
(16.4011 4.32926 0)
(16.5918 3.50632 1.10505e-15)
(16.8525 2.76419 1.06957e-15)
(17.1741 2.09764 0)
(17.5486 1.50189 -1.05678e-15)
(17.9685 0.976012 2.55907e-16)
(18.4293 0.516432 -2.5629e-16)
(18.926 0.12216 2.49714e-16)
(19.4532 -0.206744 4.38875e-16)
(20.0056 -0.469825 -1.63119e-17)
(20.5776 -0.666416 5.32232e-16)
(21.1631 -0.795024 1.57515e-16)
(21.7553 -0.853823 -1.51202e-16)
(22.3464 -0.840423 -4.87717e-16)
(22.9246 -0.753699 4.1985e-16)
(23.4731 -0.595825 -3.05289e-16)
(23.9744 -0.374238 -3.2208e-16)
(24.4169 -0.100844 -1.12561e-16)
(24.7949 0.212368 -1.25451e-18)
(25.1053 0.554646 9.60399e-18)
(25.3459 0.915211 4.97281e-17)
(25.5155 1.28308 1.05026e-17)
(25.615 1.64824 -1.93415e-17)
(25.6454 2.00233 2.35429e-16)
(25.6073 2.33703 -2.05917e-16)
(25.4949 2.64593 9.57871e-18)
(25.307 2.91656 -7.19928e-16)
(24.9936 3.14017 1.86151e-15)
(24.6007 3.21113 0)
(23.8539 3.11934 -6.43535e-15)
(19.7963 12.2898 1.00497e-17)
(20.3529 12.818 0)
(21.0159 13.3581 0)
(21.7529 13.8725 6.90351e-18)
(22.5278 14.3212 -2.03604e-17)
(23.3781 14.7211 0)
(24.2787 15.0534 0)
(25.2109 15.3035 -6.58968e-16)
(26.1789 15.4685 -3.35064e-17)
(27.1688 15.5412 -4.08287e-17)
(28.1725 15.5153 -1.57225e-15)
(29.1861 15.3856 -4.12406e-16)
(30.1983 15.1467 7.87309e-16)
(31.1986 14.7938 -6.7208e-17)
(32.1748 14.3233 0)
(33.1112 13.7342 0)
(33.9914 13.0283 -3.57927e-15)
(34.7979 12.211 -6.61804e-16)
(35.5143 11.2914 6.71161e-16)
(36.1242 10.2822 -1.39278e-15)
(36.6136 9.19928 2.65096e-15)
(36.972 8.05993 1.2601e-15)
(37.1894 6.88201 -1.22653e-15)
(37.2545 5.68562 -1.39847e-15)
(37.1547 4.49572 2.23178e-16)
(36.8846 3.34432 -1.21867e-15)
(36.4591 2.26758 -1.38336e-16)
(35.9124 1.28854 3.07684e-17)
(35.2772 0.40728 -3.09519e-17)
(34.5695 -0.383522 1.03476e-16)
(33.7938 -1.0846 -4.31657e-17)
(32.9544 -1.69273 -2.90261e-15)
(32.0541 -2.2052 -1.08329e-16)
(31.0965 -2.61653 1.27225e-16)
(30.0661 -2.9179 0)
(28.9898 -3.07588 4.40941e-15)
(27.7463 -3.09604 2.51139e-15)
(26.5167 -2.69883 0)
(24.9616 -2.43405 0)
(19.3019 11.7453 0)
(18.8468 11.1768 2.00554e-16)
(18.3929 10.4953 -6.64394e-16)
(17.9497 9.71732 -3.22211e-16)
(17.577 8.8896 -7.89518e-16)
(17.2732 7.99864 0)
(17.0571 7.06074 0)
(16.9418 6.1335 -8.56907e-16)
(16.9251 5.25294 8.95899e-16)
(16.9988 4.42391 0)
(17.1499 3.658 -4.66008e-16)
(17.3652 2.96527 -5.02926e-16)
(17.6366 2.34007 4.76224e-16)
(17.9574 1.77707 4.94138e-16)
(18.3216 1.27508 -9.18088e-16)
(18.7261 0.830672 0)
(19.1675 0.443118 -2.07704e-16)
(19.6417 0.113186 1.29701e-17)
(20.1445 -0.157751 9.22555e-16)
(20.6713 -0.367871 -1.70911e-16)
(21.2163 -0.514559 1.64181e-16)
(21.7728 -0.595197 -1.25459e-16)
(22.3331 -0.60688 1.78055e-16)
(22.8858 -0.548041 -8.48025e-16)
(23.4145 -0.420019 -3.01496e-16)
(23.9022 -0.228656 2.61112e-16)
(24.337 0.015877 -1.6031e-17)
(24.7121 0.302549 0)
(25.0233 0.620911 -9.21918e-18)
(25.2674 0.960404 5.4456e-17)
(25.4428 1.31016 -7.71484e-17)
(25.5495 1.65996 1.2862e-16)
(25.5879 2.00113 -4.80906e-16)
(25.558 2.32489 5.10118e-16)
(25.4544 2.62407 -7.84167e-18)