/*--------------------------------*- C++ -*----------------------------------*\
| =========                 |                                                 |
| \\      /  F ield         | OpenFOAM: The Open Source CFD Toolbox           |
|  \\    /   O peration     | Version:  2312                                  |
|   \\  /    A nd           | Website:  www.openfoam.com                      |
|    \\/     M anipulation  |                                                 |
\*---------------------------------------------------------------------------*/
FoamFile
{
    version     2.0;
    format      ascii;
    arch        "LSB;label=32;scalar=64";
    class       volScalarField;
    location    "450";
    object      magR;
}
// * * * * * * * * * * * * * * * * * * * * * * * * * * * * * * * * * * * * * //

dimensions      [0 2 -2 0 0 0 0];

internalField   nonuniform List<scalar> 
27
(
0.0454668
0.0288994
0.0354979
0.0332738
0.0149302
0.0406254
0.064358
0.0365917
0.0410795
0.0362154
0.034717
0.0921793
0.0461389
0.0160765
0.00809761
0.00596013
0.012993
0.0429309
0.000283931
0.000562175
0.00288203
0.00320815
0.00273079
0.0782583
0.144921
0.258177
0.833328
)
;

boundaryField
{
    aggregate
    {
        type            calculated;
        value           nonuniform List<scalar> 
24
(
2.30036
2.3801
2.19267
2.16116
2.28897
2.11987
2.29326
2.49679
2.29269
2.17961
2.32963
2.11574
1.38375
1.40511
1.31929
1.55701
1.66258
1.56139
1.81796
1.97102
1.79617
1.88642
2.02058
1.81933
)
;
    }
    XY-Zmin
    {
        type            calculated;
        value           nonuniform List<scalar> 9(2.09912 2.04398 1.76989 1.2475 1.63764 2.13281 1.02463 0.983657 1.64022);
    }
    YZ-Xmin
    {
        type            calculated;
        value           nonuniform List<scalar> 9(0.0333088 0.025182 0.0297717 0.0268238 0.0162762 0.022729 0.0348017 0.0254172 0.0339565);
    }
    XZ-Ymin
    {
        type            calculated;
        value           nonuniform List<scalar> 9(2.08363 1.86586 1.51683 1.23473 1.35971 1.42022 1.00293 0.720426 0.800491);
    }
    XY-Zmax
    {
        type            calculated;
        value           nonuniform List<scalar> 9(1.49229 1.47513 1.70682 1.45134 1.7209 1.93863 0.841402 1.3476 2.25934);
    }
    XZ-Ymax
    {
        type            calculated;
        value           nonuniform List<scalar> 9(1.75943 1.58987 1.73339 2.1797 1.88801 1.96735 1.72173 2.00961 2.3175);
    }
    YZ-Xmax
    {
        type            calculated;
        value           nonuniform List<scalar> 9(0.000297349 0.000570577 0.00287363 0.00314764 0.00282085 0.0771778 0.140164 0.243211 0.823693);
    }
}


// ************************************************************************* //
