/*--------------------------------*- C++ -*----------------------------------*\
| =========                 |                                                 |
| \\      /  F ield         | OpenFOAM: The Open Source CFD Toolbox           |
|  \\    /   O peration     | Version:  2312                                  |
|   \\  /    A nd           | Website:  www.openfoam.com                      |
|    \\/     M anipulation  |                                                 |
\*---------------------------------------------------------------------------*/
FoamFile
{
    version     2.0;
    format      ascii;
    arch        "LSB;label=32;scalar=64";
    class       volVectorField;
    location    "450";
    object      momentError;
}
// * * * * * * * * * * * * * * * * * * * * * * * * * * * * * * * * * * * * * //

dimensions      [0 1 -2 0 0 0 0];

internalField   nonuniform List<vector> 
27
(
(-0.00895371 -0.000139366 0.00180959)
(-0.014408 0.00189348 -0.00160716)
(-0.0111681 -0.0116935 0.00703962)
(0.157599 0.00206566 -0.192773)
(-0.0178086 0.000664601 -0.00447348)
(1.53042 0.0574367 -1.61524)
(-1.20039 -0.772043 2.30812)
(2.34703 0.099147 -2.48845)
(2.19929 0.283414 -0.420784)
(-0.0778577 -0.0163146 -0.00378243)
(-61.7259 -7.47669 -3.5984)
(-0.0683132 -0.0414285 0.0234188)
(-89.6912 -19.9904 21.7338)
(-95.0358 -3.2135 -29.4261)
(-38.4347 -1.69398 -17.7477)
(-56.7083 -8.02519 23.2942)
(-156.391 -24.5871 -27.8315)
(-53.3799 -24.0751 -23.687)
(-453.21 -128.123 -39.4798)
(-1164.72 -84.0922 -97.3109)
(-898.385 -70.1067 -100.948)
(-1664.36 -192.923 84.905)
(-1512.09 -345.401 -131.033)
(-918.558 -374.485 -233.907)
(-1060.89 -649.993 -57.631)
(-50.5179 -809.976 -45.1866)
(547.342 -545.281 37.843)
)
;

boundaryField
{
    aggregate
    {
        type            calculated;
        value           nonuniform List<vector> 
24
(
(-86.9315 -70.5575 102.524)
(625.798 -11.0174 -0.602019)
(-86.9315 17.7461 16.0046)
(437.437 -271.598 578.905)
(1159 50.5076 21.0056)
(437.437 135.766 70.2305)
(-444.144 -97.9413 84.5973)
(436.506 -50.0769 1.69396)
(-444.144 -345.187 -168.684)
(799.204 -186.356 500.971)
(1676.52 87.0771 27.368)
(799.204 -61.6806 -58.5181)
(746.433 92.5195 66.8877)
(1220.31 114.889 28.1428)
(746.433 266.904 115.908)
(-1199.4 -5.57752 -256.331)
(-1085.01 -123.147 -52.6966)
(-1199.4 -327.489 -170.676)
(-1973.1 -229.395 192.895)
(-1906.38 -143.563 44.2299)
(-1973.1 -556.118 -193.953)
(-1076.8 -28.0068 -73.9194)
(-935.251 -46.8025 -41.3641)
(-1076.8 -626.032 -375.786)
)
;
    }
    XY-Zmin
    {
        type            calculated;
        value           nonuniform List<vector> 9((-86.9315 -11.0174 119.131) (-444.144 -50.0769 -85.7831) (726.76 84.5842 11.4106) (746.433 114.889 154.654) (-1973.1 -143.563 -45.2913) (-1296.55 -80.1008 46.0313) (-249.801 -118.859 -217.276) (-539.656 -279.453 38.4463) (-448.324 -686.942 30.956));
    }
    YZ-Xmin
    {
        type            calculated;
        value           nonuniform List<vector> 9((708.555 -0.846217 -0.599082) (794.421 -1.71413 20.9035) (-6.49362 4.44957 -7.42636) (807.959 0.516924 1.68479) (1017.43 -7.3368 27.2351) (360.919 -9.41572 4.59548) (801.008 -11.3884 2.1728) (817.568 -4.72704 1.18983) (864.669 -38.9567 3.81596));
    }
    XZ-Ymin
    {
        type            calculated;
        value           nonuniform List<vector> 9((-86.9315 -41.7938 -0.602019) (437.437 -186.342 21.0056) (-141.803 -321.641 -7.46265) (746.433 244.534 28.1428) (-1199.4 -209.919 -52.6966) (-457.064 -1.88047 -8.64702) (-249.801 -482.047 -41.1309) (-658.04 -296.265 -119.033) (-1000.95 -243.708 -97.8459));
    }
    XY-Zmax
    {
        type            calculated;
        value           nonuniform List<vector> 9((-141.803 -15.566 453.332) (143.651 9.46073 449.185) (875.928 76.7677 67.8186) (-457.064 -51.9614 -434.494) (-1531.45 -75.0115 -331.826) (-879.06 -76.6678 68.5747) (-1000.95 -76.8534 -112.202) (-138.14 -393.959 -188.169) (615.467 -545.295 97.934));
    }
    XZ-Ymax
    {
        type            calculated;
        value           nonuniform List<vector> 9((726.76 -208.279 2.17214) (587.694 -101.529 1.2078) (875.928 -455.879 3.83662) (-1296.55 -667.515 18.6031) (-711.435 -518.431 -36.3727) (-879.06 -152.873 -33.9479) (-448.324 -645.524 -51.5784) (191.918 -652.398 -37.6982) (615.467 -368.918 39.6772));
    }
    YZ-Xmax
    {
        type            calculated;
        value           nonuniform List<vector> 9((-443.38 -128.134 -39.4806) (-1851.48 -84.2909 -97.3618) (-1198.41 -70.0626 -100.938) (-2919.41 -194.591 84.8646) (-2773.71 -348.247 -131.297) (-1767.56 -375.117 -233.907) (-1596.63 -650.714 -57.5943) (-367.684 -810.097 -45.1599) (301.645 -545.294 37.8461));
    }
}


// ************************************************************************* //
