/*--------------------------------*- C++ -*----------------------------------*\
| =========                 |                                                 |
| \\      /  F ield         | OpenFOAM: The Open Source CFD Toolbox           |
|  \\    /   O peration     | Version:  2312                                  |
|   \\  /    A nd           | Website:  www.openfoam.com                      |
|    \\/     M anipulation  |                                                 |
\*---------------------------------------------------------------------------*/
FoamFile
{
    version     2.0;
    format      ascii;
    arch        "LSB;label=32;scalar=64";
    class       surfaceScalarField;
    location    "450";
    object      phi;
}
// * * * * * * * * * * * * * * * * * * * * * * * * * * * * * * * * * * * * * //

dimensions      [0 3 -1 0 0 0 0];

oriented        oriented;

internalField   nonuniform List<scalar> 
54
(
0.00453418
0.0232244
0.0284173
-0.00213506
0.0208335
0.0207946
0.0218838
0.0273512
0.000301369
0.0320089
0.00301286
0.0115001
0.2221
0.013986
0.230654
-0.0044059
0.253344
0.248527
0.0271716
0.000544074
0.246173
0.0157283
0.00197189
0.293893
0.0232415
0.310767
0.00447058
0.00239369
0.307685
0.00999402
0.00607281
0.303739
0.0143222
0.209034
-0.0100766
0.194402
-0.00430069
0.207157
0.212062
-0.015151
-0.0050352
0.22037
-0.0154847
-0.00048089
0.253625
-0.00467677
0.272723
-0.00965386
0.00753453
0.295617
-0.00443729
0.00960534
0.296029
0.00350532
)
;

boundaryField
{
    aggregate
    {
        type            calculated;
        value           uniform 0;
    }
    XY-Zmin
    {
        type            calculated;
        value           uniform 0;
    }
    YZ-Xmin
    {
        type            calculated;
        value           nonuniform List<scalar> 9(-0.257509 -0.257553 -0.257539 -0.257556 -0.257448 -0.257487 -0.257191 -0.257201 -0.257205);
    }
    XZ-Ymin
    {
        type            calculated;
        value           uniform 0;
    }
    XY-Zmax
    {
        type            calculated;
        value           uniform 0;
    }
    XZ-Ymax
    {
        type            calculated;
        value           uniform 0;
    }
    YZ-Xmax
    {
        type            calculated;
        value           nonuniform List<scalar> 9(0.243915 0.231584 0.201896 0.263795 0.283219 0.275602 0.278245 0.296802 0.311243);
    }
}


// ************************************************************************* //
