/*--------------------------------*- C++ -*----------------------------------*\
| =========                 |                                                 |
| \\      /  F ield         | OpenFOAM: The Open Source CFD Toolbox           |
|  \\    /   O peration     | Version:  2312                                  |
|   \\  /    A nd           | Website:  www.openfoam.com                      |
|    \\/     M anipulation  |                                                 |
\*---------------------------------------------------------------------------*/
FoamFile
{
    version     2.0;
    format      ascii;
    arch        "LSB;label=32;scalar=64";
    class       volScalarField;
    location    "450";
    object      turbulenceProperties:k;
}
// * * * * * * * * * * * * * * * * * * * * * * * * * * * * * * * * * * * * * //

dimensions      [0 2 -2 0 0 0 0];

internalField   nonuniform List<scalar> 
27
(
0.0389481
0.0248036
0.0305303
0.0285004
0.0127936
0.0346963
0.054883
0.0313623
0.0352924
0.0310203
0.0296171
0.0775184
0.0391871
0.0138081
0.0070081
0.00516079
0.0112359
0.0368935
0.000245891
0.000486855
0.00249568
0.00277787
0.00236225
0.0653247
0.120165
0.210459
0.677605
)
;

boundaryField
{
    aggregate
    {
        type            calculated;
        value           uniform 0;
    }
    XY-Zmin
    {
        type            calculated;
        value           uniform 0;
    }
    YZ-Xmin
    {
        type            calculated;
        value           nonuniform List<scalar> 9(0.0284652 0.0215327 0.025409 0.0229352 0.0139447 0.0193989 0.0297018 0.0216925 0.0289806);
    }
    XZ-Ymin
    {
        type            calculated;
        value           uniform 0;
    }
    XY-Zmax
    {
        type            calculated;
        value           uniform 0;
    }
    XZ-Ymax
    {
        type            calculated;
        value           uniform 0;
    }
    YZ-Xmax
    {
        type            calculated;
        value           nonuniform List<scalar> 9(0.000257511 0.000494131 0.00248841 0.00272546 0.0024396 0.0644117 0.116232 0.198239 0.669766);
    }
}


// ************************************************************************* //
