/*--------------------------------*- C++ -*----------------------------------*\
| =========                 |                                                 |
| \\      /  F ield         | OpenFOAM: The Open Source CFD Toolbox           |
|  \\    /   O peration     | Version:  2312                                  |
|   \\  /    A nd           | Website:  www.openfoam.com                      |
|    \\/     M anipulation  |                                                 |
\*---------------------------------------------------------------------------*/
FoamFile
{
    version     2.0;
    format      ascii;
    arch        "LSB;label=32;scalar=64";
    class       volSymmTensorField;
    location    "450";
    object      turbulenceProperties:devReff;
}
// * * * * * * * * * * * * * * * * * * * * * * * * * * * * * * * * * * * * * //

dimensions      [0 2 -2 0 0 0 0];

internalField   nonuniform List<symmTensor> 
27
(
(0.002466 -0.00561787 -0.0057991 -0.00177548 -0.000697121 -0.000690517)
(0.00200028 -0.00474517 -0.00168448 -0.00137786 -0.000331138 -0.000622418)
(0.000253429 -0.00456266 0.00484218 -0.000788041 0.000338269 0.000534612)
(0.00135055 -0.00152391 -0.00579529 -0.000783325 -0.000621236 -0.000567225)
(0.00153817 -0.00145743 -0.00189014 -0.000805134 3.33938e-05 -0.000733031)
(-0.00110631 0.00031115 0.00747047 0.000309585 0.000858883 0.000796723)
(-0.001953 0.00888867 -0.00796247 0.00198403 -0.000974467 -3.10384e-05)
(-0.00141532 0.00660683 -5.31329e-05 0.00146684 0.000230894 -5.15233e-05)
(-0.000944273 0.00549979 0.00521015 0.000843627 0.000680405 0.000100647)
(-0.000198115 -0.00472102 -0.00460065 -0.00022541 -0.00063462 0.000423525)
(-0.00019093 -0.00605937 -0.00228569 -0.000323621 -0.000331234 0.000514552)
(0.00300831 -0.0134772 0.0134634 -0.00300894 0.00100261 6.39477e-07)
(-0.00134938 -0.00371732 -0.00802727 0.00071858 -0.000318907 0.000630801)
(-0.000960454 -0.00192735 -0.00190606 0.000527461 -2.99675e-05 0.000432993)
(4.07875e-05 -0.000122795 0.0031519 -4.36638e-05 0.000149705 2.87627e-06)
(-7.18621e-05 0.00324262 -0.00312079 0.000250743 -0.000229846 -0.000178881)
(-0.000432851 0.00363467 4.19596e-05 0.000445148 4.23343e-05 -1.22969e-05)
(-0.000898368 0.00573061 0.00553091 0.000681831 0.000542074 0.000216537)
(9.49396e-05 -0.00199569 -0.00192167 -6.06492e-05 -5.9727e-05 -3.42904e-05)
(0.000439845 -0.00196396 0.000241975 -0.000181735 5.22657e-05 -0.00025811)
(0.000495337 -0.00212396 0.00190057 -0.000208309 0.000114927 -0.000287028)
(0.000349059 -0.000119148 -0.00227607 -7.43233e-05 0.000147477 -0.000274736)
(0.00039413 -0.000579035 -0.000175606 -0.000112971 -0.000159795 -0.000281158)
(0.00150977 -0.00410921 0.0166993 -0.000183961 -0.00126109 -0.00132581)
(0.00352455 0.0220937 -0.0249688 -0.00263311 0.00109309 -0.000891438)
(0.00038999 0.0641566 -0.00657681 -0.00227585 -0.00126535 0.00188586)
(-0.0113583 0.141819 0.15054 -0.000227396 0.00016201 0.0115857)
)
;

boundaryField
{
    aggregate
    {
        type            calculated;
        value           nonuniform List<symmTensor> 
24
(
(0.224469 -1.21355 1.06246 -0.271298 0.127108 0.0468293)
(2.05772 0.1521 -0.0314006 -1.03287 -0.0051557 -1.02485)
(-0.0204475 1.39558 0.676194 0.185958 0.0992494 -0.165511)
(0.0904497 0.511981 -1.43949 0.0830305 -0.141402 -0.17348)
(1.98174 0.130076 0.0593198 -0.993944 -0.00269646 -0.987793)
(-0.00546842 1.2609 0.805762 0.112741 0.160819 -0.107272)
(0.139344 -0.990722 1.28272 -0.176106 0.147528 0.0367627)
(2.15457 0.167474 -0.0506365 -1.07809 -0.00465577 -1.07647)
(0.174686 -1.2316 -1.04444 -0.227525 -0.109335 0.0528393)
(0.0675521 0.639245 -1.402 0.081607 -0.126677 -0.149159)
(2.01504 0.150104 0.0387493 -1.00779 0.000246386 -1.00725)
(0.182634 -1.26875 -0.785552 -0.200921 -0.117687 0.0182866)
(0.0170128 -0.746987 0.62593 -0.138876 0.0797084 0.121863)
(-1.22206 -0.169417 -0.0612626 0.609156 -0.00366517 0.612904)
(-0.119624 0.831733 0.405982 0.174576 0.0948175 -0.0549512)
(-0.0161848 0.350021 -1.04876 0.0926546 -0.0852499 -0.0764698)
(-1.44762 -0.142249 -0.0597246 0.721694 -0.00167323 0.725928)
(-0.10306 0.929938 0.592357 0.119564 0.0979013 -0.0165036)
(-0.00112276 -0.828768 0.994641 -0.0348168 0.080757 0.0359396)
(-1.71558 -0.104284 -0.0204271 0.857985 -0.00141789 0.857595)
(-0.0135586 -0.988675 -0.807445 -0.0636889 -0.0416879 0.0772475)
(-0.0829896 0.506495 -1.24053 0.0791618 -0.0504521 0.00382774)
(-1.75925 -0.0767541 -0.0316874 0.879987 -0.000229344 0.879264)
(-0.0159513 -1.10509 -0.679641 -0.0280864 -0.0389539 0.0440377)
)
;
    }
    XY-Zmin
    {
        type            calculated;
        value           nonuniform List<symmTensor> 9((0.219661 -0.507193 -1.37771 -0.163269 -0.174057 -0.0563925) (0.113173 -0.138164 -1.4333 -0.0802926 -0.159636 -0.0328807) (-0.134911 0.608334 -1.08513 0.134536 -0.128534 0.000375387) (-0.00223893 -0.331929 -0.812988 -0.00415805 -0.1288 0.00639697) (-0.0816749 -0.199705 -1.14264 0.0294219 -0.068451 0.052253) (-0.0161615 0.692073 -1.34458 0.0526922 -0.0805369 -0.0365308) (0.0164491 -0.315063 -0.656811 -0.00811395 -0.0279451 -0.0083351) (0.0557915 -0.0188466 -0.695985 -0.0111786 0.0498871 -0.0446129) (0.0791086 0.502937 -1.04732 -0.0610631 0.0644332 -0.0180455));
    }
    YZ-Xmin
    {
        type            calculated;
        value           nonuniform List<symmTensor> 9((-0.00246353 -0.0052298 -0.00507282 0.000757083 -0.000609996 0.00170645) (-0.00210736 -0.00490382 -0.00205488 0.000683494 -0.000324534 0.00142387) (0.000190828 -0.00495811 0.00507515 -0.000837285 0.000379468 0.000646457) (-0.00327609 -0.00167003 -0.00501631 0.00154419 -0.000539602 0.0017319) (-0.00251744 -0.00159647 -0.00199566 0.00122694 2.94358e-05 0.0012905) (-0.000940849 0.000557935 0.00531862 0.000288768 0.000640564 0.000652081) (-0.00134157 0.00609815 -0.00550512 0.00136905 -0.000675348 -2.74807e-05) (-0.00143618 0.00592914 -5.37482e-05 0.00140454 0.000208771 3.16487e-05) (-0.00111499 0.00593766 0.00543854 0.000945503 0.000710655 0.000169491));
    }
    XZ-Ymin
    {
        type            calculated;
        value           nonuniform List<symmTensor> 9((0.294825 -1.35176 -0.518725 -0.307302 -0.0712276 0.0124771) (0.262602 -1.28639 -0.167412 -0.264547 -0.0754992 0.00194456) (0.0677721 -0.940884 0.506802 -0.164974 0.00877156 0.0972019) (0.0461058 -0.806055 -0.320495 -0.135517 -0.0714279 0.0894111) (0.0351068 -0.949944 -0.140687 -0.113637 -0.05158 0.07853) (0.147225 -0.875894 0.471124 -0.189202 0.0318133 0.0419773) (0.0388651 -0.643984 -0.303376 -0.0573285 -0.00638754 0.0184634) (0.0776241 -0.506737 0.0342043 -0.056589 0.0206919 -0.0210351) (0.0884185 -0.498338 0.263581 -0.0683347 0.0275212 -0.0200838));
    }
    XY-Zmax
    {
        type            calculated;
        value           nonuniform List<symmTensor> 9((0.0104258 -0.477546 0.939182 -0.0985785 0.0811428 0.0881527) (-0.0971309 0.0226699 1.04071 0.00602897 0.0821787 0.091102) (-0.0981565 0.563157 1.06516 0.0849174 0.106676 0.0132392) (0.103622 -0.47161 0.907621 -0.10694 0.0875436 0.00331814) (-0.0114291 -0.0237435 1.22055 -0.0277584 0.0603941 0.0391875) (-0.103852 0.634549 1.21559 0.0711223 0.0925535 0.0327301) (0.0727095 -0.294562 0.516557 -0.0248757 0.0373377 -0.0478338) (0.0381736 -0.112315 0.950134 -0.00812048 -0.036599 -0.0300531) (-0.0662679 0.673277 1.45473 -0.0134243 0.00958187 0.0796922));
    }
    XZ-Ymax
    {
        type            calculated;
        value           nonuniform List<symmTensor> 9((-0.173544 1.10596 -0.544946 0.21555 -0.0654666 -0.0420064) (-0.172448 1.11156 -0.00477349 0.222373 0.0151734 -0.0499241) (-0.131766 1.09913 0.533499 0.156537 0.0618762 -0.0247708) (-0.0409759 1.39422 -0.66607 0.104793 -0.0414359 -0.0638169) (-0.12422 1.3324 0.00773601 0.170903 0.019018 -0.0466831) (-0.128489 1.24821 0.612435 0.133526 0.0605904 -0.00503645) (0.101062 1.07848 -0.568385 -0.1016 0.0338725 0.000537736) (0.00921236 1.42546 -0.0652097 -0.0332564 0.0250563 0.024044) (-0.0585542 1.48145 0.71468 0.00818242 0.0302163 0.0503718));
    }
    YZ-Xmax
    {
        type            calculated;
        value           nonuniform List<symmTensor> 9((-5.58785e-05 -0.0021314 -0.00197591 1.47598e-05 -5.9727e-05 4.11187e-05) (-5.53249e-05 -0.00207175 0.000143659 6.58502e-05 5.22657e-05 -1.05253e-05) (5.74486e-05 -0.00220571 0.00184901 1.06349e-05 0.000114927 -6.80835e-05) (-0.000115721 -0.000307008 -0.00226519 0.000158067 0.000147477 -4.23456e-05) (-5.18993e-05 -0.000757897 -0.000225736 0.000110043 -0.000159795 -5.81438e-05) (-0.000163674 -0.00482185 0.016349 0.000652762 -0.00126109 -0.000489089) (0.00130139 0.0206088 -0.0249037 -0.00152153 0.00109309 0.000220142) (0.00240632 0.0604637 -0.0060035 -0.00328401 -0.00126535 0.000877692) (-0.00176412 0.137331 0.15175 -0.00502451 0.00016201 0.00678863));
    }
}


// ************************************************************************* //
