/*--------------------------------*- C++ -*----------------------------------*\
| =========                 |                                                 |
| \\      /  F ield         | OpenFOAM: The Open Source CFD Toolbox           |
|  \\    /   O peration     | Version:  2312                                  |
|   \\  /    A nd           | Website:  www.openfoam.com                      |
|    \\/     M anipulation  |                                                 |
\*---------------------------------------------------------------------------*/
FoamFile
{
    version     2.0;
    format      ascii;
    arch        "LSB;label=32;scalar=64";
    class       volScalarField;
    location    "450";
    object      turbulenceProperties:nuEff;
}
// * * * * * * * * * * * * * * * * * * * * * * * * * * * * * * * * * * * * * //

dimensions      [0 2 -1 0 0 0 0];

internalField   nonuniform List<scalar> 
27
(
2.28565e-05
2.0407e-05
1.78286e-05
2.30257e-05
2.26892e-05
2.68164e-05
2.88582e-05
2.21193e-05
1.91487e-05
2.32347e-05
2.85732e-05
5.16171e-05
3.49661e-05
2.05423e-05
1.07057e-05
1.01708e-05
1.15661e-05
1.88022e-05
1.0001e-05
1.00072e-05
1.00961e-05
1.01841e-05
1.14702e-05
6.7552e-05
8.51719e-05
0.000222361
0.000474927
)
;

boundaryField
{
    aggregate
    {
        type            calculated;
        value           nonuniform List<scalar> 
24
(
0.00152989
0.00016904
0.00115859
0.00113895
0.000166174
0.00150397
0.00118274
0.000172563
0.00156175
0.00151509
0.000167405
0.0011474
0.00121447
0.000134189
0.000919722
0.000989288
0.000144338
0.00130634
0.00106554
0.000155463
0.00140699
0.00142284
0.000157212
0.00107754
)
;
    }
    XY-Zmin
    {
        type            calculated;
        value           nonuniform List<scalar> 9(0.00206354 0.00208761 0.00197503 0.0016336 0.00187848 0.00217075 0.00157887 0.00161091 0.00193883);
    }
    YZ-Xmin
    {
        type            calculated;
        value           uniform 2e-05;
    }
    XZ-Ymin
    {
        type            calculated;
        value           nonuniform List<scalar> 9(0.0020445 0.00202816 0.00186601 0.0016186 0.00175871 0.00180624 0.00157887 0.00141456 0.00140017);
    }
    XY-Zmax
    {
        type            calculated;
        value           nonuniform List<scalar> 9(0.00186601 0.00195381 0.00196075 0.00180624 0.00207004 0.00208196 0.00140017 0.00184637 0.00225469);
    }
    XZ-Ymax
    {
        type            calculated;
        value           nonuniform List<scalar> 9(0.00197503 0.00198721 0.00196075 0.00217075 0.00213241 0.00208196 0.00193883 0.00220473 0.00225469);
    }
    YZ-Xmax
    {
        type            calculated;
        value           nonuniform List<scalar> 9(1.0001e-05 1.00072e-05 1.00961e-05 1.01841e-05 1.14702e-05 6.7552e-05 8.51719e-05 0.000222361 0.000474927);
    }
}


// ************************************************************************* //
