/*--------------------------------*- C++ -*----------------------------------*\
| =========                 |                                                 |
| \\      /  F ield         | OpenFOAM: The Open Source CFD Toolbox           |
|  \\    /   O peration     | Version:  2312                                  |
|   \\  /    A nd           | Website:  www.openfoam.com                      |
|    \\/     M anipulation  |                                                 |
\*---------------------------------------------------------------------------*/
FoamFile
{
    version     2.0;
    format      ascii;
    arch        "LSB;label=32;scalar=64";
    class       volScalarField;
    location    "450";
    object      turbulenceProperties:I;
}
// * * * * * * * * * * * * * * * * * * * * * * * * * * * * * * * * * * * * * //

dimensions      [0 0 0 0 0 0 0];

internalField   nonuniform List<scalar> 
27
(
0.0051651
0.00420848
0.00552852
0.00430892
0.00299545
0.00557627
0.00692267
0.00519453
0.00560002
0.00610835
0.00546003
0.00916186
0.00573682
0.00335927
0.00233784
0.00189488
0.00285642
0.00532711
0.000606979
0.000975544
0.00223624
0.0019912
0.0017254
0.00819067
0.010474
0.011877
0.0207456
)
;

boundaryField
{
    aggregate
    {
        type            calculated;
        value           uniform 0;
    }
    XY-Zmin
    {
        type            calculated;
        value           uniform 0;
    }
    YZ-Xmin
    {
        type            calculated;
        value           nonuniform List<scalar> 9(0.00529253 0.00460374 0.00500543 0.00475001 0.00370462 0.00437241 0.00540988 0.00462311 0.00534406);
    }
    XZ-Ymin
    {
        type            calculated;
        value           uniform 0;
    }
    XY-Zmax
    {
        type            calculated;
        value           uniform 0;
    }
    XZ-Ymax
    {
        type            calculated;
        value           uniform 0;
    }
    YZ-Xmax
    {
        type            calculated;
        value           nonuniform List<scalar> 9(0.000621094 0.00098189 0.00222996 0.00197024 0.00175216 0.00813296 0.0103047 0.0115347 0.0206324);
    }
}


// ************************************************************************* //
