/*--------------------------------*- C++ -*----------------------------------*\
| =========                 |                                                 |
| \\      /  F ield         | OpenFOAM: The Open Source CFD Toolbox           |
|  \\    /   O peration     | Version:  2312                                  |
|   \\  /    A nd           | Website:  www.openfoam.com                      |
|    \\/     M anipulation  |                                                 |
\*---------------------------------------------------------------------------*/
FoamFile
{
    version     2.0;
    format      ascii;
    arch        "LSB;label=32;scalar=64";
    class       volScalarField;
    location    "450";
    object      turbulenceProperties:nut;
}
// * * * * * * * * * * * * * * * * * * * * * * * * * * * * * * * * * * * * * //

dimensions      [0 2 -1 0 0 0 0];

internalField   nonuniform List<scalar> 
27
(
1.28565e-05
1.0407e-05
7.82862e-06
1.30257e-05
1.26892e-05
1.68164e-05
1.88582e-05
1.21193e-05
9.14867e-06
1.32347e-05
1.85732e-05
4.16171e-05
2.49661e-05
1.05423e-05
7.05715e-07
1.70758e-07
1.56608e-06
8.80217e-06
9.93979e-10
7.16769e-09
9.60754e-08
1.84118e-07
1.47025e-06
5.7552e-05
7.51719e-05
0.000212361
0.000464927
)
;

boundaryField
{
    aggregate
    {
        type            nutUSpaldingWallFunction;
        value           nonuniform List<scalar> 
24
(
0.00151989
0.00015904
0.00114859
0.00112895
0.000156174
0.00149397
0.00117274
0.000162563
0.00155175
0.00150509
0.000157405
0.0011374
0.00120447
0.000124189
0.000909722
0.000979288
0.000134338
0.00129634
0.00105554
0.000145463
0.00139699
0.00141284
0.000147212
0.00106754
)
;
    }
    XY-Zmin
    {
        type            nutUSpaldingWallFunction;
        value           nonuniform List<scalar> 9(0.00205354 0.00207761 0.00196503 0.0016236 0.00186848 0.00216075 0.00156887 0.00160091 0.00192883);
    }
    YZ-Xmin
    {
        type            freestream;
        freestreamValue uniform 1e-05;
        value           uniform 1e-05;
    }
    XZ-Ymin
    {
        type            nutUSpaldingWallFunction;
        value           nonuniform List<scalar> 9(0.0020345 0.00201816 0.00185601 0.0016086 0.00174871 0.00179624 0.00156887 0.00140456 0.00139017);
    }
    XY-Zmax
    {
        type            nutUSpaldingWallFunction;
        value           nonuniform List<scalar> 9(0.00185601 0.00194381 0.00195075 0.00179624 0.00206004 0.00207196 0.00139017 0.00183637 0.00224469);
    }
    XZ-Ymax
    {
        type            nutUSpaldingWallFunction;
        value           nonuniform List<scalar> 9(0.00196503 0.00197721 0.00195075 0.00216075 0.00212241 0.00207196 0.00192883 0.00219473 0.00224469);
    }
    YZ-Xmax
    {
        type            freestream;
        freestreamValue uniform 1e-05;
        value           nonuniform List<scalar> 9(9.93979e-10 7.16769e-09 9.60754e-08 1.84118e-07 1.47025e-06 5.7552e-05 7.51719e-05 0.000212361 0.000464927);
    }
}


// ************************************************************************* //
