/*--------------------------------*- C++ -*----------------------------------*\
| =========                 |                                                 |
| \\      /  F ield         | OpenFOAM: The Open Source CFD Toolbox           |
|  \\    /   O peration     | Version:  2312                                  |
|   \\  /    A nd           | Website:  www.openfoam.com                      |
|    \\/     M anipulation  |                                                 |
\*---------------------------------------------------------------------------*/
FoamFile
{
    version     2.0;
    format      ascii;
    arch        "LSB;label=32;scalar=64";
    class       volSymmTensorField;
    location    "450";
    object      turbulenceProperties:R;
}
// * * * * * * * * * * * * * * * * * * * * * * * * * * * * * * * * * * * * * //

dimensions      [0 2 -2 0 0 0 0];

internalField   nonuniform List<symmTensor> 
27
(
(0.0273525 -0.00315999 -0.00326193 0.0249667 -0.000392122 0.025577)
(0.0175558 -0.00241991 -0.000859038 0.0158331 -0.000168872 0.0162183)
(0.0204648 -0.00200348 0.00212622 0.0200075 0.000148536 0.0205883)
(0.0197643 -0.000862079 -0.00327841 0.0185572 -0.000351435 0.0186794)
(0.00938932 -0.000815084 -0.00105708 0.0080788 1.86758e-05 0.00811912)
(0.0224371 0.00019512 0.00468469 0.023325 0.000538601 0.0236305)
(0.0353125 0.00580855 -0.0052033 0.0378852 -0.000636792 0.0365684)
(0.0201328 0.00361993 -2.91119e-05 0.0217119 0.000126508 0.02088)
(0.0230771 0.00262764 0.00248926 0.0239313 0.000325077 0.0235764)
(0.0205673 -0.00268914 -0.00262058 0.0205518 -0.000361486 0.0209214)
(0.0196206 -0.00393872 -0.00148575 0.0195344 -0.000215309 0.0200792)
(0.0541044 -0.0108662 0.0108551 0.0492529 0.000808369 0.0516795)
(0.0251613 -0.0026542 -0.00573154 0.0266378 -0.000227702 0.0265752)
(0.00871251 -0.000989112 -0.000978186 0.0094761 -1.53793e-05 0.00942762)
(0.00467476 -8.0946e-06 0.000207771 0.00466919 9.86848e-06 0.00467226)
(0.00343932 5.44407e-05 -5.23952e-05 0.00344474 -3.85891e-06 0.00343753)
(0.00743198 0.000492145 5.68146e-06 0.00755087 5.73219e-06 0.00748893)
(0.0241751 0.00268277 0.00258928 0.0249149 0.00025377 0.024697)
(0.000163937 -1.98348e-07 -1.90991e-07 0.000163922 -5.93615e-09 0.000163924)
(0.000324885 -1.4067e-06 1.73316e-07 0.00032444 3.74356e-08 0.000324385)
(0.0016685 -2.02119e-05 1.80861e-05 0.00166181 1.09366e-06 0.00166106)
(0.00185823 -2.15406e-06 -4.11489e-05 0.00185057 2.66622e-06 0.00184695)
(0.00162535 -7.42203e-05 -2.25091e-05 0.00156035 -2.04824e-05 0.0015388)
(0.0448361 -0.00350091 0.0142272 0.0433931 -0.00107441 0.0424203)
(0.0832207 0.0194997 -0.0220372 0.077786 0.000964754 0.0793231)
(0.140678 0.0612713 -0.00628104 0.138133 -0.00120845 0.142107)
(0.440617 0.138832 0.14737 0.451514 0.000158599 0.463078)
)
;

boundaryField
{
    aggregate
    {
        type            calculated;
        value           nonuniform List<symmTensor> 
24
(
(0.223001 -1.20561 1.05552 -0.269524 0.126277 0.0465232)
(1.93599 0.143102 -0.029543 -0.97177 -0.0048507 -0.964221)
(-0.020271 1.38354 0.670358 0.184353 0.0983928 -0.164082)
(0.0896555 0.507486 -1.42686 0.0823015 -0.14016 -0.171957)
(1.86248 0.122248 0.05575 -0.934131 -0.00253419 -0.92835)
(-0.00543206 1.25251 0.800404 0.111991 0.159749 -0.106559)
(0.138165 -0.982346 1.27187 -0.174617 0.146281 0.0364519)
(2.02971 0.157768 -0.0477021 -1.01562 -0.00438597 -1.01409)
(0.173567 -1.22371 -1.03776 -0.226068 -0.108635 0.052501)
(0.0671062 0.635026 -1.39274 0.0810684 -0.125841 -0.148175)
(1.89467 0.141137 0.0364346 -0.947586 0.000231668 -0.947086)
(0.181042 -1.25769 -0.778706 -0.199169 -0.116661 0.0181272)
(0.0168727 -0.740837 0.620776 -0.137733 0.079052 0.12086)
(-1.13099 -0.156792 -0.0566972 0.563761 -0.00339204 0.567229)
(-0.118324 0.82269 0.401568 0.172677 0.0937865 -0.0543538)
(-0.0160212 0.346483 -1.03816 0.091718 -0.0843882 -0.0756969)
(-1.34733 -0.132393 -0.0555867 0.671694 -0.00155731 0.675634)
(-0.102271 0.922819 0.587822 0.118648 0.0971519 -0.0163772)
(-0.00111223 -0.82099 0.985307 -0.03449 0.0799991 0.0356023)
(-1.60523 -0.0975756 -0.0191132 0.802796 -0.00132669 0.802431)
(-0.0134622 -0.981648 -0.801706 -0.0632363 -0.0413916 0.0766985)
(-0.0824063 0.502935 -1.23181 0.0786055 -0.0500975 0.00380084)
(-1.64735 -0.0718719 -0.0296718 0.824013 -0.000214756 0.823336)
(-0.0158032 -1.09483 -0.673333 -0.0278258 -0.0385924 0.043629)
)
;
    }
    XY-Zmin
    {
        type            calculated;
        value           nonuniform List<symmTensor> 9((0.218597 -0.504735 -1.37103 -0.162478 -0.173214 -0.0561192) (0.112631 -0.137502 -1.42643 -0.079908 -0.158872 -0.0327232) (-0.134228 0.605254 -1.07963 0.133855 -0.127883 0.000373487) (-0.00222522 -0.329897 -0.808012 -0.00413259 -0.128012 0.00635782) (-0.0812401 -0.198642 -1.13655 0.0292652 -0.0680866 0.0519748) (-0.016087 0.688885 -1.33839 0.0524495 -0.0801659 -0.0363625) (0.0163449 -0.313068 -0.652651 -0.00806256 -0.0277682 -0.0082823) (0.0554452 -0.0187297 -0.691665 -0.0111092 0.0495775 -0.0443359) (0.0787005 0.500343 -1.04192 -0.0607481 0.0641009 -0.0179524));
    }
    YZ-Xmin
    {
        type            calculated;
        value           nonuniform List<symmTensor> 9((0.0177451 -0.0026149 -0.00253641 0.0193554 -0.000304998 0.01983) (0.0133015 -0.00245191 -0.00102744 0.0146969 -0.000162267 0.0150671) (0.0170348 -0.00247906 0.00253757 0.0165207 0.000189734 0.0172626) (0.0136521 -0.000835014 -0.00250815 0.0160622 -0.000269801 0.0161561) (0.00803774 -0.000798237 -0.000997831 0.00990993 1.47179e-05 0.00994171) (0.0124622 0.000278968 0.00265931 0.013077 0.000320282 0.0132586) (0.0191304 0.00304907 -0.00275256 0.0204858 -0.000337674 0.0197875) (0.0137436 0.00296457 -2.68741e-05 0.015164 0.000104385 0.0144775) (0.0187629 0.00296883 0.00271927 0.0197931 0.000355328 0.0194051));
    }
    XZ-Ymin
    {
        type            calculated;
        value           nonuniform List<symmTensor> 9((0.293383 -1.34515 -0.516187 -0.305799 -0.0708792 0.012416) (0.261307 -1.28005 -0.166587 -0.263242 -0.075127 0.00193498) (0.0674089 -0.935842 0.504086 -0.16409 0.00872455 0.096681) (0.045821 -0.801075 -0.318515 -0.13468 -0.0709866 0.0888587) (0.0349072 -0.944543 -0.139887 -0.112991 -0.0512867 0.0780835) (0.14641 -0.871044 0.468516 -0.188155 0.0316371 0.0417449) (0.038619 -0.639906 -0.301455 -0.0569654 -0.00634708 0.0183465) (0.0770753 -0.503155 0.0339625 -0.0561889 0.0205456 -0.0208864) (0.087787 -0.494779 0.261699 -0.0678466 0.0273247 -0.0199404));
    }
    XY-Zmax
    {
        type            calculated;
        value           nonuniform List<symmTensor> 9((0.01037 -0.474987 0.934149 -0.0980502 0.0807079 0.0876803) (-0.0966338 0.0225539 1.03538 0.00599811 0.0817581 0.0906357) (-0.0976559 0.560284 1.05973 0.0844843 0.106132 0.0131717) (0.103048 -0.468999 0.902596 -0.106348 0.0870589 0.00329977) (-0.0113739 -0.0236288 1.21465 -0.0276243 0.0601023 0.0389982) (-0.103354 0.631501 1.20975 0.0707807 0.092109 0.0325729) (0.0721902 -0.292458 0.512868 -0.0246981 0.0370711 -0.0474922) (0.0379668 -0.111707 0.944988 -0.0080765 -0.0364008 -0.0298903) (-0.065974 0.670291 1.44828 -0.0133647 0.00953937 0.0793387));
    }
    XZ-Ymax
    {
        type            calculated;
        value           nonuniform List<symmTensor> 9((-0.172665 1.10037 -0.542187 0.214459 -0.0651351 -0.0417937) (-0.171581 1.10597 -0.00474947 0.221254 0.015097 -0.0496729) (-0.131094 1.09352 0.530778 0.155739 0.0615607 -0.0246444) (-0.0407871 1.3878 -0.663001 0.10431 -0.041245 -0.0635229) (-0.123637 1.32615 0.00769973 0.170102 0.0189288 -0.0464642) (-0.127872 1.24222 0.609494 0.132884 0.0602994 -0.00501226) (0.100541 1.07291 -0.565453 -0.101076 0.0336978 0.000534963) (0.00917057 1.419 -0.0649139 -0.0331055 0.0249426 0.0239349) (-0.0582945 1.47488 0.71151 0.00814613 0.0300822 0.0501483));
    }
    YZ-Xmax
    {
        type            calculated;
        value           nonuniform List<symmTensor> 9((0.000171669 -2.11836e-07 -1.96382e-07 0.000171676 -5.93615e-09 0.000171678) (0.000329381 -1.4839e-06 1.02897e-07 0.000329468 3.74356e-08 0.000329413) (0.00165949 -2.09898e-05 1.75954e-05 0.00165904 1.09366e-06 0.00165829) (0.00181488 -5.55039e-06 -4.09521e-05 0.00181983 2.66622e-06 0.00181621) (0.00161975 -9.71467e-05 -2.89347e-05 0.0016405 -2.04824e-05 0.00161894) (0.0428017 -0.00410806 0.0139288 0.0434973 -0.00107441 0.0425245) (0.0786365 0.0181891 -0.0219798 0.076145 0.000964754 0.0776822) (0.134457 0.0577446 -0.00573351 0.129023 -0.00120845 0.132998) (0.444783 0.134439 0.148555 0.441592 0.000158599 0.453156));
    }
}


// ************************************************************************* //
