/*--------------------------------*- C++ -*----------------------------------*\
| =========                 |                                                 |
| \\      /  F ield         | OpenFOAM: The Open Source CFD Toolbox           |
|  \\    /   O peration     | Version:  2312                                  |
|   \\  /    A nd           | Website:  www.openfoam.com                      |
|    \\/     M anipulation  |                                                 |
\*---------------------------------------------------------------------------*/
FoamFile
{
    version     2.0;
    format      ascii;
    arch        "LSB;label=32;scalar=64";
    class       volVectorField;
    location    "450";
    object      U;
}
// * * * * * * * * * * * * * * * * * * * * * * * * * * * * * * * * * * * * * //

dimensions      [0 1 -1 0 0 0 0];

internalField   nonuniform List<vector> 
27
(
(30.949 3.92272 0.214995)
(30.3192 3.50048 1.45598)
(25.6165 2.81008 1.34949)
(31.7883 3.58298 -0.134989)
(30.632 3.3374 1.04911)
(27.1886 1.79891 1.19393)
(27.4432 3.21782 -0.00512639)
(27.6284 3.39109 0.174463)
(27.2862 2.38857 0.132957)
(23.2524 3.57908 0.876712)
(25.5798 2.60076 1.10394)
(24.6497 2.80049 0.467671)
(28.112 1.84446 -0.335778)
(28.531 1.26674 0.34693)
(29.1838 1.43312 1.04081)
(30.9026 1.79645 0.116922)
(30.1935 2.4889 0.464632)
(29.3782 1.87128 0.365089)
(21.0711 0.959677 -0.171028)
(18.4428 0.533562 -0.790652)
(18.1926 1.19673 -0.550206)
(21.548 -1.6578 -0.12779)
(22.9336 -1.67595 -0.490965)
(25.4706 -0.635564 0.00382791)
(26.9725 -1.62697 0.266508)
(31.5127 -0.801108 0.973365)
(32.3861 -0.00646149 0.871967)
)
;

boundaryField
{
    aggregate
    {
        type            noSlip;
    }
    XY-Zmin
    {
        type            noSlip;
    }
    YZ-Xmin
    {
        type            freestreamVelocity;
        freestreamValue uniform (25.75 3.62 0);
        value           nonuniform List<vector> 9((25.7753 3.62147 0.00104558) (25.7722 3.61942 0.00707464) (25.7494 3.61606 0.00655669) (25.7793 3.61982 -0.000655661) (25.7737 3.61863 0.00509477) (25.757 3.61118 0.00578194) (25.7582 3.61805 -2.49169e-05) (25.7591 3.61889 0.000848379) (25.7575 3.61403 0.000644949));
    }
    XZ-Ymin
    {
        type            noSlip;
    }
    XY-Zmax
    {
        type            noSlip;
    }
    XZ-Ymax
    {
        type            noSlip;
    }
    YZ-Xmax
    {
        type            freestreamVelocity;
        freestreamValue uniform (25.75 3.62 0);
        value           nonuniform List<vector> 9((21.0732 0.960842 -0.170953) (18.4599 0.540795 -0.788799) (18.217 1.20454 -0.548431) (21.5734 -1.62585 -0.127017) (22.9529 -1.63967 -0.487602) (25.4719 -0.61496 0.00380937) (26.9651 -1.59519 0.264894) (31.4922 -0.785382 0.969903) (32.375 -0.000385171 0.870506));
    }
}


// ************************************************************************* //
