/*--------------------------------*- C++ -*----------------------------------*\
| =========                 |                                                 |
| \\      /  F ield         | OpenFOAM: The Open Source CFD Toolbox           |
|  \\    /   O peration     | Version:  2312                                  |
|   \\  /    A nd           | Website:  www.openfoam.com                      |
|    \\/     M anipulation  |                                                 |
\*---------------------------------------------------------------------------*/
FoamFile
{
    version     2.0;
    format      ascii;
    arch        "LSB;label=32;scalar=64";
    class       volScalarField;
    location    "300";
    object      div(phi);
}
// * * * * * * * * * * * * * * * * * * * * * * * * * * * * * * * * * * * * * //

dimensions      [0 0 -1 0 0 0 0];

internalField   nonuniform List<scalar> 
10720
(
1.54716e-06
-1.85962e-06
7.05455e-07
-1.43251e-06
3.11974e-07
-9.61185e-08
8.73188e-07
6.64409e-07
2.61919e-07
-2.19724e-07
-3.90106e-07
-5.74439e-07
-5.27017e-07
-4.89978e-07
-3.20433e-07
-2.88976e-07
-1.94936e-07
-2.62126e-07
-1.25088e-07
-1.75209e-07
2.21826e-07
2.32681e-07
9.76252e-07
4.38412e-06
7.22298e-06
-9.86346e-06
4.61535e-06
7.73881e-06
-1.42956e-06
-7.96688e-06
6.9287e-06
7.61258e-06
1.62738e-06
5.85683e-06
4.3374e-06
8.33381e-06
1.12471e-05
3.31438e-05
0.000407027
-1.71843e-06
8.81613e-07
-6.77426e-07
1.09468e-07
-1.13266e-07
4.61856e-09
6.47708e-08
4.40834e-08
-1.38736e-07
-1.01375e-08
4.69697e-10
1.37389e-07
1.3153e-07
1.87382e-07
1.35811e-07
1.57086e-07
9.99984e-08
1.42006e-07
5.21087e-08
1.07036e-07
-9.60614e-08
-7.1122e-08
-5.40714e-07
-6.68931e-07
-6.81061e-07
-6.38914e-07
-3.52983e-07
-1.11868e-07
-5.65998e-07
-1.1672e-06
-7.62584e-07
2.03007e-07
-1.42898e-06
-3.61342e-06
1.00622e-06
3.55456e-06
-6.94337e-06
3.21832e-06
-7.17091e-06
6.17721e-07
-5.93311e-07
4.33247e-07
-1.00807e-06
5.50468e-07
3.00607e-07
8.88468e-07
6.12537e-07
7.88067e-08
-2.79233e-07
-4.43724e-07
-5.83863e-07
-4.82795e-07
-4.27537e-07
-2.44726e-07
-2.31527e-07
-1.14934e-07
-1.49601e-07
-2.24357e-09
-8.45908e-09
2.62543e-07
2.19547e-07
5.38937e-07
1.05864e-06
1.88878e-06
-2.5314e-07
2.20149e-06
3.42545e-06
4.9665e-07
-2.5304e-06
4.78571e-06
4.38538e-06
1.97506e-06
4.60899e-06
4.92867e-06
7.55245e-06
1.0888e-05
2.97517e-05
0.00023773
-1.61049e-07
4.35455e-07
-3.46748e-07
9.5527e-08
-1.47237e-07
6.2871e-08
9.0185e-08
-9.80214e-09
-9.22586e-08
-3.97603e-08
2.74199e-09
1.09388e-07
1.16258e-07
1.69543e-07
1.27538e-07
1.60052e-07
1.11862e-07
1.49182e-07
7.48596e-08
9.19193e-08
-7.21961e-08
-1.26062e-07
-5.23493e-07
-6.79951e-07
-8.05243e-07
-7.36198e-07
-5.4959e-07
-2.3859e-07
-4.89048e-07
-1.04724e-06
-7.80298e-07
-9.26146e-09
-7.51193e-07
-2.98859e-06
-2.70471e-07
2.27561e-06
-6.55024e-06
4.02489e-06
-5.92541e-06
-1.74627e-06
1.08411e-06
-1.22797e-06
7.86126e-07
-4.29346e-08
9.35591e-07
8.3644e-07
3.47019e-07
-7.52708e-08
-3.2676e-07
-5.55447e-07
-5.53805e-07
-5.75238e-07
-4.25987e-07
-3.72135e-07
-2.76519e-07
-2.67082e-07
-2.51957e-07
-2.20588e-07
-1.82581e-07
-1.51546e-09
1.03081e-07
3.60141e-07
1.59727e-06
2.50691e-06
-4.33857e-06
1.93612e-06
4.18121e-06
-1.23126e-06
-5.42766e-06
4.03935e-06
4.16597e-06
5.38939e-07
2.938e-06
1.50112e-06
3.39556e-06
3.8175e-06
8.25482e-06
0.000121198
1.13072e-06
-6.49391e-07
3.03506e-07
-2.45614e-07
8.12085e-08
5.62525e-08
8.1866e-08
-5.79269e-08
-2.40124e-08
-4.07103e-08
7.87972e-08
8.27621e-08
1.59716e-07
1.2964e-07
1.54145e-07
1.12664e-07
1.21244e-07
9.30152e-08
8.80034e-08
5.47896e-08
-6.50576e-09
-8.69349e-08
-3.08025e-07
-4.5016e-07
-4.71292e-07
-4.35776e-07
-2.44527e-07
-3.14683e-09
-6.1155e-07
-9.8807e-07
-6.77802e-07
3.59903e-07
-1.55137e-06
-3.90164e-06
1.56411e-06
4.15955e-06
-7.05067e-06
1.94278e-06
-4.74402e-06
9.88839e-07
-6.4162e-07
4.17172e-07
-5.24113e-09
7.62266e-07
9.11052e-07
5.57597e-07
2.29333e-07
-1.75618e-07
-4.11795e-07
-5.94632e-07
-5.58535e-07
-5.32803e-07
-3.46345e-07
-3.17768e-07
-1.79617e-07
-2.15742e-07
-1.02074e-07
-1.13449e-07
5.01122e-08
1.21658e-07
2.69486e-07
3.58172e-07
9.68156e-07
1.39341e-06
3.72169e-07
1.73012e-06
2.59374e-06
6.55012e-07
-1.5496e-06
3.93302e-06
3.01344e-06
1.65935e-06
3.64045e-06
3.99466e-06
5.72451e-06
7.93595e-06
2.00215e-05
0.000124153
-4.6389e-07
1.41271e-07
-2.51617e-07
-1.1399e-08
1.55215e-08
1.755e-07
5.41147e-08
-2.76515e-08
-5.56512e-08
-2.25357e-08
5.01179e-08
8.12635e-08
1.38453e-07
1.14706e-07
1.47318e-07
1.03237e-07
1.36501e-07
8.90261e-08
1.09004e-07
3.48187e-08
-4.24652e-09
-1.50075e-07
-3.36655e-07
-5.45456e-07
-6.40118e-07
-6.88718e-07
-5.34551e-07
-2.84959e-07
-4.93312e-07
-8.62305e-07
-7.39621e-07
3.96971e-08
-6.5416e-07
-3.19374e-06
-2.68172e-07
2.71659e-06
-7.46892e-06
3.7817e-06
-5.10356e-06
5.15805e-07
7.9859e-08
1.29928e-07
5.32361e-07
7.96412e-07
7.1942e-07
4.88569e-07
4.34856e-08
-2.21428e-07
-5.21902e-07
-5.50689e-07
-6.1757e-07
-4.68461e-07
-4.34935e-07
-3.11054e-07
-3.16249e-07
-2.58747e-07
-2.81414e-07
-2.4242e-07
-2.06609e-07
-7.08989e-08
3.92652e-08
1.41906e-07
1.06896e-06
1.81564e-06
-3.59843e-06
1.57844e-06
4.68e-06
-1.60295e-06
-5.63366e-06
4.63206e-06
3.32076e-06
2.86123e-07
2.63327e-06
1.09004e-06
2.57294e-06
2.72478e-06
3.85644e-06
6.2894e-05
-2.30298e-07
-1.198e-07
-2.22681e-07
-7.54831e-08
1.87687e-07
1.11472e-07
3.07702e-08
-2.0424e-08
-6.31507e-08
2.66218e-08
3.92678e-08
1.28528e-07
1.07004e-07
1.51922e-07
1.0646e-07
1.30225e-07
8.53215e-08
1.06206e-07
6.13314e-08
7.22225e-08
-4.90307e-09
-2.99131e-08
-1.99674e-07
-2.40264e-07
-3.54812e-07
-2.87375e-07
-1.91637e-07
9.62327e-08
-6.45444e-07
-7.65373e-07
-5.81728e-07
5.36051e-07
-1.43949e-06
-4.20525e-06
1.82713e-06
5.18896e-06
-7.78654e-06
1.80006e-06
-3.53721e-06
-2.55954e-08
1.0964e-07
5.14622e-07
4.62157e-07
7.44734e-07
6.38622e-07
3.029e-07
-2.19091e-08
-3.13987e-07
-5.41387e-07
-5.71108e-07
-5.63172e-07
-4.07702e-07
-3.6005e-07
-2.19685e-07
-2.39542e-07
-1.39588e-07
-1.79343e-07
-4.55421e-08
-2.7645e-08
1.62555e-07
1.47283e-07
3.23765e-07
7.34449e-07
1.17366e-06
5.16652e-07
1.69729e-06
2.3276e-06
8.64223e-07
-1.23205e-06
4.09135e-06
2.57348e-06
1.61661e-06
3.78705e-06
4.09199e-06
5.81887e-06
7.343e-06
1.69261e-05
8.088e-05
-6.09579e-08
-2.66185e-07
-3.00384e-07
6.04534e-08
1.22445e-07
1.66615e-07
4.50971e-08
-4.46087e-08
-4.06864e-08
-3.58842e-10
5.49765e-08
1.05731e-07
1.10939e-07
1.29371e-07
1.02545e-07
1.15451e-07
8.65748e-08
9.84301e-08
6.5269e-08
4.80882e-08
-1.43911e-08
-1.0283e-07
-2.36373e-07
-3.94026e-07
-5.06869e-07
-6.01302e-07
-5.05366e-07
-3.30588e-07
-4.3988e-07
-6.63184e-07
-6.26265e-07
6.51708e-08
-4.64556e-07
-2.92618e-06
-2.79979e-07
2.6612e-06
-7.27894e-06
3.1763e-06
-3.99776e-06
-6.05151e-07
5.64209e-07
1.63912e-07
6.0669e-07
6.41057e-07
4.5914e-07
1.83952e-07
-2.67362e-08
-4.08232e-07
-4.91672e-07
-6.00068e-07
-4.65523e-07
-4.42266e-07
-3.06029e-07
-3.10093e-07
-2.41966e-07
-2.76618e-07
-2.41491e-07
-2.54964e-07
-1.91287e-07
-1.2585e-07
-6.12992e-08
-1.20651e-07
5.61293e-07
9.33213e-07
-2.51277e-06
1.42536e-06
3.92913e-06
-1.41901e-06
-5.82735e-06
4.77275e-06
2.60968e-06
-1.42295e-07
2.5702e-06
4.63479e-07
2.50856e-06
1.84913e-06
2.37454e-06
3.7894e-05
4.05554e-08
-5.69019e-07
-7.7536e-08
-3.26658e-09
1.92485e-07
9.9172e-08
3.43389e-08
-4.91268e-08
-2.46203e-08
-2.75063e-09
8.60395e-08
8.72353e-08
1.38839e-07
9.91331e-08
1.25332e-07
7.80861e-08
1.01798e-07
5.53844e-08
8.29119e-08
2.23272e-08
4.66099e-08
-5.82282e-08
-5.25573e-08
-1.98205e-07
-1.59113e-07
-2.75747e-07
-6.19981e-08
4.85836e-08
-5.70224e-07
-7.35369e-07
-4.63899e-07
6.24426e-07
-1.21464e-06
-4.15246e-06
2.10927e-06
5.47018e-06
-8.08547e-06
1.60148e-06
-2.31886e-06
1.06842e-06
1.71814e-07
5.30558e-07
5.41449e-07
4.47159e-07
3.75213e-07
2.04636e-07
-1.60132e-07
-3.74089e-07
-4.99782e-07
-5.29187e-07
-4.12526e-07
-3.62301e-07
-2.32197e-07
-2.34519e-07
-1.39965e-07
-1.86752e-07
-9.2469e-08
-1.11261e-07
4.43674e-08
6.51395e-08
1.57729e-07
1.75014e-07
6.26532e-07
8.27327e-07
6.25239e-07
1.41519e-06
1.99894e-06
9.30112e-07
-6.54717e-07
3.57991e-06
1.96256e-06
1.4221e-06
3.48446e-06
3.91023e-06
5.82219e-06
7.26695e-06
1.59405e-05
5.87299e-05
-5.87011e-07
-1.97183e-08
-2.34927e-07
9.28505e-08
1.16388e-07
1.36541e-07
1.05829e-08
-4.22891e-08
-4.35492e-08
1.40417e-08
6.38124e-08
1.06745e-07
1.1323e-07
1.10859e-07
9.50695e-08
8.79535e-08
7.15032e-08
7.17793e-08
4.63366e-08
3.8115e-08
-1.64687e-08
-6.48767e-08
-1.66238e-07
-2.70784e-07
-3.84639e-07
-4.80102e-07
-4.45156e-07
-3.28493e-07
-3.83031e-07
-5.05786e-07
-5.41894e-07
4.22928e-08
-3.3487e-07
-2.58421e-06
-2.66443e-07
2.41886e-06
-6.71274e-06
2.48512e-06
-2.89343e-06
-2.43547e-07
5.24966e-07
4.61825e-07
3.88887e-07
4.61342e-07
2.90455e-07
1.06073e-07
-1.15299e-07
-3.38845e-07
-5.14816e-07
-4.14547e-07
-4.1301e-07
-2.68541e-07
-2.79164e-07
-1.90747e-07
-2.38132e-07
-1.92055e-07
-2.50667e-07
-1.95168e-07
-2.13953e-07
-1.14545e-07
-2.03234e-07
-2.14751e-07
1.32772e-07
5.23505e-07
-1.60308e-06
9.33815e-07
2.996e-06
-1.23786e-06
-5.88005e-06
4.56906e-06
1.90018e-06
-4.13088e-07
2.04753e-06
-1.19436e-07
1.6704e-06
9.00842e-07
1.48573e-06
2.4167e-05
1.45853e-07
-3.57386e-07
-2.20711e-08
4.84501e-08
1.68562e-07
7.74002e-08
5.15472e-09
-3.85883e-08
-3.77984e-08
2.56517e-08
6.22892e-08
1.16901e-07
1.0073e-07
1.15422e-07
7.75326e-08
8.69182e-08
5.06854e-08
6.62976e-08
2.76813e-08
4.73593e-08
-5.81114e-09
6.08297e-09
-7.11771e-08
-6.88254e-08
-1.55486e-07
-1.34134e-07
-1.01674e-07
8.24374e-08
-5.57841e-07
-6.28065e-07
-4.93516e-07
7.59446e-07
-9.60789e-07
-4.15402e-06
2.12326e-06
6.02234e-06
-8.0636e-06
1.80771e-06
-1.41804e-06
4.90793e-07
4.40787e-07
3.64708e-07
4.23737e-07
2.78662e-07
3.12678e-07
1.27601e-07
-2.07346e-07
-3.51281e-07
-4.33059e-07
-3.80083e-07
-3.26211e-07
-2.25477e-07
-2.02793e-07
-1.34065e-07
-1.50577e-07
-1.02545e-07
-1.22195e-07
-4.75334e-08
-5.55112e-10
7.96901e-08
7.58347e-08
1.55136e-07
4.81079e-07
6.57567e-07
5.40317e-07
1.17255e-06
1.70864e-06
9.36346e-07
-1.73347e-07
2.98227e-06
1.50703e-06
1.19259e-06
2.99928e-06
3.39154e-06
5.13767e-06
6.35099e-06
1.45055e-05
4.48055e-05
-1.82807e-07
-1.34601e-07
-9.41389e-08
1.38202e-07
1.18662e-07
9.84842e-08
1.57297e-10
-5.10932e-08
-2.94716e-08
1.00043e-08
8.23202e-08
9.50391e-08
1.19865e-07
8.66402e-08
9.20935e-08
5.4582e-08
6.68578e-08
3.2838e-08
4.71344e-08
6.2513e-09
5.03493e-09
-6.08897e-08
-9.32157e-08
-1.99456e-07
-2.56787e-07
-3.71751e-07
-3.34202e-07
-3.02623e-07
-2.97994e-07
-4.00736e-07
-4.59546e-07
5.39449e-09
-2.68586e-07
-2.27683e-06
-2.44357e-07
2.1708e-06
-6.04449e-06
1.98142e-06
-2.12084e-06
4.7311e-07
3.61859e-07
3.25511e-07
2.54959e-07
3.8595e-07
2.08754e-07
-8.38158e-09
-6.59909e-08
-3.77169e-07
-3.42106e-07
-3.67404e-07
-2.33048e-07
-2.39251e-07
-1.40215e-07
-1.87853e-07
-1.27616e-07
-2.04905e-07
-1.52256e-07
-2.27475e-07
-1.25254e-07
-2.06529e-07
-1.66167e-07
-3.57722e-07
7.87439e-08
1.51929e-07
-9.43598e-07
3.30173e-07
2.1047e-06
-1.51445e-06
-5.16707e-06
4.05821e-06
1.67457e-06
-5.64673e-07
1.63431e-06
-6.57211e-07
9.56079e-07
-2.65202e-07
6.54491e-08
1.8042e-05
-1.75684e-07
-1.35719e-07
5.01201e-08
7.51985e-08
1.55745e-07
5.69275e-08
-2.36838e-09
-4.06896e-08
-2.64243e-08
2.28254e-08
7.49499e-08
1.01867e-07
1.02987e-07
8.94421e-08
7.09729e-08
5.58195e-08
4.37943e-08
3.18238e-08
2.68693e-08
1.13699e-08
8.72819e-09
-2.01073e-08
-2.4104e-08
-7.36699e-08
-7.7337e-08
-1.35324e-07
-5.0229e-08
-1.30377e-09
-4.51666e-07
-5.88441e-07
-4.23522e-07
8.22614e-07
-7.33857e-07
-4.04919e-06
2.29086e-06
6.19516e-06
-8.33769e-06
1.94421e-06
-8.68785e-07
1.45937e-07
2.33926e-07
2.09963e-07
3.25406e-07
1.9159e-07
2.29233e-07
1.24145e-07
-2.25439e-07
-2.62443e-07
-3.25667e-07
-2.81705e-07
-2.25045e-07
-1.60786e-07
-1.31469e-07
-1.00635e-07
-1.04418e-07
-8.16502e-08
-9.19196e-08
-3.24097e-08
-4.38355e-09
6.3915e-08
3.78686e-08
1.45348e-07
3.85389e-07
5.06607e-07
4.30013e-07
9.51616e-07
1.41806e-06
8.41543e-07
2.06264e-07
2.41801e-06
1.14567e-06
1.04091e-06
2.47784e-06
2.94107e-06
4.34792e-06
5.23473e-06
1.20529e-05
3.20935e-05
9.07264e-09
-1.20143e-08
-1.52537e-08
1.66371e-07
1.06271e-07
7.74063e-08
-1.36989e-08
-4.3861e-08
-3.28544e-08
3.26876e-08
6.6455e-08
1.10103e-07
8.88901e-08
9.29786e-08
5.45882e-08
5.98734e-08
2.66542e-08
4.04977e-08
8.75737e-09
2.31771e-08
-1.8198e-08
-1.81171e-08
-7.82355e-08
-1.10096e-07
-1.88991e-07
-2.40541e-07
-2.4959e-07
-2.20568e-07
-2.43603e-07
-3.02686e-07
-3.81484e-07
-2.85901e-08
-2.42595e-07
-1.88747e-06
-2.22535e-07
1.84965e-06
-5.42863e-06
1.56654e-06
-1.59414e-06
2.19915e-07
1.37539e-07
1.99935e-07
1.62824e-07
3.25344e-07
1.58505e-07
1.39843e-08
-5.11545e-08
-2.36381e-07
-3.11981e-07
-2.33691e-07
-2.16399e-07
-1.25868e-07
-1.39161e-07
-8.95865e-08
-1.39385e-07
-1.08761e-07
-1.77008e-07
-1.25332e-07
-1.81083e-07
-1.22006e-07
-2.63537e-07
-2.29359e-07
-9.60267e-08
1.05867e-07
-7.68479e-07
1.18353e-07
9.51599e-07
-1.27217e-06
-4.37062e-06
3.29368e-06
1.34959e-06
-4.57068e-07
1.28591e-06
-9.22097e-07
2.76265e-07
-1.02722e-06
-5.61714e-07
1.06474e-05
1.14691e-08
-2.56892e-08
1.47985e-07
9.93584e-08
1.40693e-07
3.82563e-08
-8.6362e-09
-3.80558e-08
-1.41642e-08
2.28026e-08
7.84859e-08
8.34682e-08
9.7224e-08
6.31598e-08
6.42807e-08
3.14625e-08
3.67874e-08
1.24491e-08
1.85179e-08
2.80334e-10
8.13245e-10
-1.63642e-08
-2.47606e-08
-4.95567e-08
-6.93148e-08
-1.00082e-07
-6.17037e-08
-3.00689e-08
-3.56833e-07
-4.73939e-07
-3.38007e-07
6.90447e-07
-5.62739e-07
-3.91499e-06
2.18986e-06
6.37906e-06
-8.25861e-06
2.18608e-06
-4.49257e-07
9.44439e-08
1.15409e-07
1.11994e-07
2.57974e-07
1.37372e-07
2.29563e-07
1.11504e-07
-1.44055e-07
-2.30438e-07
-2.46634e-07
-2.4916e-07
-1.52268e-07
-1.41779e-07
-6.80718e-08
-9.85901e-08
-4.70333e-08
-9.47099e-08
-3.3023e-08
-6.06881e-08
3.51759e-08
6.47512e-09
6.48854e-08
9.65643e-08
3.47491e-07
3.40948e-07
3.71942e-07
7.18435e-07
1.16568e-06
7.07646e-07
4.3658e-07
1.84817e-06
9.03553e-07
8.71451e-07
2.05036e-06
2.4351e-06
3.68879e-06
4.16325e-06
9.61578e-06
2.0734e-05
2.07362e-08
1.16467e-07
6.00667e-08
1.79504e-07
9.42343e-08
5.75662e-08
-1.69226e-08
-4.47047e-08
-1.16272e-08
2.58512e-08
7.6836e-08
8.30071e-08
8.602e-08
6.16564e-08
5.43617e-08
3.01262e-08
3.21403e-08
1.1046e-08
2.11004e-08
-1.82204e-09
6.43834e-09
-2.50504e-08
-3.02981e-08
-8.04824e-08
-1.06141e-07
-1.65617e-07
-1.51256e-07
-1.61547e-07
-1.72293e-07
-2.39887e-07
-2.94057e-07
-6.53439e-08
-2.207e-07
-1.5662e-06
-2.08154e-07
1.53672e-06
-4.73032e-06
1.29017e-06
-1.20908e-06
6.11663e-08
4.2998e-08
1.31683e-07
1.19117e-07
2.91215e-07
1.32549e-07
2.78804e-08
-2.34032e-08
-2.30891e-07
-2.57748e-07
-2.24051e-07
-1.68206e-07
-1.15739e-07
-9.09203e-08
-8.22413e-08
-8.77244e-08
-1.0547e-07
-1.13162e-07
-1.31526e-07
-1.16335e-07
-1.5632e-07
-1.84873e-07
-2.32157e-07
-4.81235e-08
-6.11999e-08
-4.85277e-07
-1.81904e-07
5.15427e-07
-1.18494e-06
-3.11473e-06
2.37301e-06
1.09932e-06
-2.94962e-07
1.13243e-06
-9.51694e-07
-2.02183e-07
-1.53301e-06
-1.17992e-06
5.16712e-06
7.13185e-08
4.89553e-08
1.8014e-07
1.07568e-07
1.22694e-07
2.42039e-08
-1.38343e-08
-2.63339e-08
-1.38746e-08
3.59802e-08
5.21885e-08
8.43883e-08
5.72349e-08
6.63455e-08
2.98962e-08
4.02196e-08
9.46779e-09
2.2883e-08
-1.702e-09
9.99297e-09
-1.12805e-08
-5.32414e-09
-2.72917e-08
-3.28235e-08
-6.25981e-08
-7.60441e-08
-6.46737e-08
-4.39485e-08
-2.56116e-07
-3.31034e-07
-2.77991e-07
5.01317e-07
-4.65394e-07
-3.90493e-06
2.17614e-06
6.25958e-06
-8.18746e-06
2.29811e-06
-1.57099e-07
3.30904e-08
5.85132e-08
7.22586e-08
2.11852e-07
1.02784e-07
2.1443e-07
1.16218e-07
-1.69533e-07
-1.82645e-07
-2.60933e-07
-1.92163e-07
-1.70053e-07
-8.08535e-08
-9.21306e-08
-3.58776e-08
-7.87501e-08
-2.97923e-08
-7.05573e-08
2.34687e-09
-2.01829e-08
4.89466e-08
9.42232e-09
1.40431e-07
2.30111e-07
2.90727e-07
2.56941e-07
6.08684e-07
9.05084e-07
6.08377e-07
5.12989e-07
1.42756e-06
7.08729e-07
7.84939e-07
1.60705e-06
2.01438e-06
2.95885e-06
3.25433e-06
7.37888e-06
1.27211e-05
3.29616e-08
1.39994e-07
8.40049e-08
1.73409e-07
8.09485e-08
4.71928e-08
-2.57218e-08
-2.8947e-08
-1.00973e-08
3.62152e-08
5.89335e-08
6.96046e-08
6.04667e-08
4.98829e-08
3.49024e-08
2.76776e-08
1.49642e-08
1.6491e-08
4.10061e-09
1.14723e-08
-5.8021e-09
6.62495e-10
-2.80548e-08
-3.25106e-08
-7.75939e-08
-8.71563e-08
-1.06076e-07
-9.35452e-08
-1.35566e-07
-1.75408e-07
-2.3265e-07
-6.67987e-08
-2.48608e-07
-1.26422e-06
-2.1047e-07
1.11374e-06
-4.11178e-06
1.04928e-06
-9.282e-07
6.60142e-09
2.48486e-09
9.54991e-08
8.3097e-08
2.64569e-07
1.27773e-07
1.39445e-09
1.301e-08
-2.29833e-07
-2.32995e-07
-2.29726e-07
-1.34825e-07
-1.19478e-07
-5.71325e-08
-8.13667e-08
-5.36379e-08
-9.27445e-08
-7.64051e-08
-1.04768e-07
-9.17088e-08
-1.27435e-07
-1.46645e-07
-1.56221e-07
-5.28116e-08
-7.53517e-08
-3.3821e-07
-1.71002e-07
2.45208e-07
-8.30585e-07
-2.01074e-06
1.53696e-06
7.56242e-07
-1.09748e-07
8.83289e-07
-8.11737e-07
-5.15323e-07
-1.89905e-06
-1.21447e-06
1.8292e-06
7.24161e-08
7.15194e-08
1.78952e-07
1.08121e-07
1.08054e-07
1.1833e-08
-1.24004e-08
-2.77903e-08
1.07378e-09
1.73108e-08
5.43189e-08
4.33532e-08
5.76888e-08
2.90299e-08
3.99016e-08
1.12596e-08
2.52147e-08
7.71157e-10
1.52474e-08
-5.75828e-09
4.92733e-09
-1.40614e-08
-1.13905e-08
-3.28455e-08
-4.33979e-08
-6.48022e-08
-5.23362e-08
-4.90699e-08
-1.58348e-07
-2.34744e-07
-2.03902e-07
2.8866e-07
-5.38672e-07
-3.19752e-06
2.04553e-06
6.03556e-06
-7.80436e-06
2.28012e-06
1.13324e-07
-3.24044e-10
3.75906e-08
4.07135e-08
1.80121e-07
9.40752e-08
1.89753e-07
1.23969e-07
-1.57687e-07
-1.90971e-07
-2.1818e-07
-2.01455e-07
-1.22937e-07
-9.78964e-08
-4.60052e-08
-6.02726e-08
-2.83018e-08
-5.74662e-08
-1.48482e-08
-3.41127e-08
2.62195e-08
2.74086e-09
5.98748e-08
9.06968e-08
2.17525e-07
1.87324e-07
2.50289e-07
4.74142e-07
7.32717e-07
4.98826e-07
5.40953e-07
1.05715e-06
6.29232e-07
6.67872e-07
1.27872e-06
1.58736e-06
2.30125e-06
2.36407e-06
5.51633e-06
7.56137e-06
3.8977e-08
1.36994e-07
9.4004e-08
1.58904e-07
7.06234e-08
2.6256e-08
-2.16019e-08
-2.89498e-08
3.68417e-09
2.72484e-08
4.75795e-08
4.75476e-08
4.23797e-08
3.45224e-08
2.51671e-08
1.79994e-08
1.34584e-08
6.6456e-09
9.88074e-09
1.36294e-10
7.59392e-09
-8.55473e-09
-3.47078e-09
-3.0942e-08
-3.52172e-08
-6.64208e-08
-5.52034e-08
-7.49968e-08
-9.09481e-08
-1.52963e-07
-1.72082e-07
-9.33916e-08
-2.48832e-07
-9.95821e-07
-2.10769e-07
7.00563e-07
-3.44726e-06
8.94986e-07
-6.99814e-07
-2.80905e-09
-1.62932e-08
7.03473e-08
7.32618e-08
2.39471e-07
9.65392e-08
8.29852e-09
-2.42732e-09
-1.86238e-07
-2.43317e-07
-1.62655e-07
-1.4916e-07
-6.2296e-08
-7.86811e-08
-2.82024e-08
-6.85871e-08
-3.57826e-08
-7.71113e-08
-4.47464e-08
-8.42813e-08
-6.67237e-08
-1.1173e-07
-7.10269e-08
-4.36197e-08
-3.73301e-08
-2.03801e-07
-7.9643e-08
1.42616e-07
-4.74979e-07
-1.13533e-06
8.31378e-07
4.34637e-07
-2.42938e-08
6.36445e-07
-6.34607e-07
-6.7616e-07
-1.99222e-06
-1.26279e-06
2.76675e-08
6.83883e-08
8.07324e-08
1.6827e-07
1.02229e-07
8.20502e-08
1.19725e-08
-2.16919e-08
-1.82913e-08
-1.0137e-08
2.30414e-08
2.22387e-08
4.18284e-08
2.28325e-08
3.48441e-08
1.15344e-08
2.42299e-08
1.71456e-09
1.72972e-08
-2.85478e-09
1.09505e-08
-7.85136e-09
7.63341e-10
-1.76196e-08
-1.76781e-08
-4.0176e-08
-4.33978e-08
-4.73863e-08
-3.51885e-08
-1.01983e-07
-1.57111e-07
-1.59546e-07
1.07966e-07
-4.14531e-07
-2.35458e-06
1.71056e-06
6.05296e-06
-7.11307e-06
2.1362e-06
3.23716e-07
-4.65535e-09
2.1061e-08
2.98973e-08
1.5601e-07
5.43387e-08
1.83668e-07
1.02938e-07
-1.68729e-07
-1.57066e-07
-1.89271e-07
-1.46227e-07
-1.07664e-07
-5.93398e-08
-4.8343e-08
-2.33e-08
-3.68328e-08
-1.34908e-08
-2.74154e-08
1.13656e-08
5.22729e-10
4.80217e-08
3.80788e-08
1.23476e-07
1.48103e-07
1.84811e-07
1.94506e-07
4.22654e-07
5.46453e-07
4.63202e-07
4.71645e-07
8.21298e-07
5.46469e-07
6.2739e-07
9.939e-07
1.28138e-06
1.66601e-06
1.60857e-06
3.95655e-06
4.44978e-06
4.07617e-08
1.29198e-07
9.52162e-08
1.39199e-07
6.19176e-08
9.88866e-09
-2.598e-08
-1.81164e-08
1.25352e-09
2.43239e-08
3.13448e-08
3.12225e-08
2.87064e-08
2.19591e-08
1.79869e-08
1.05191e-08
7.90594e-09
5.73663e-09
2.30811e-09
5.27856e-09
-3.01837e-09
2.55199e-09
-1.35198e-08
-1.12224e-08
-3.68594e-08
-3.53857e-08
-5.18351e-08
-4.8194e-08
-8.78049e-08
-1.24385e-07
-1.5673e-07
-9.00014e-08
-2.53801e-07
-7.96215e-07
-1.92869e-07
3.42288e-07
-2.83735e-06
7.49831e-07
-5.17742e-07
-1.14562e-08
-2.88896e-08
5.55826e-08
4.43801e-08
2.21019e-07
8.01556e-08
-2.46881e-08
4.71588e-08
-1.81213e-07
-1.48944e-07
-1.51887e-07
-7.17944e-08
-7.41496e-08
-1.58277e-08
-4.45172e-08
-6.02605e-09
-4.32807e-08
-8.96073e-09
-4.29621e-08
-1.00567e-08
-5.15202e-08
-2.36804e-08
-3.72773e-08
2.19113e-08
-1.68054e-08
-5.94029e-08
-1.20643e-08
1.40509e-07
-2.15294e-07
-5.95549e-07
3.73761e-07
2.42439e-07
-5.91314e-08
3.76462e-07
-5.79373e-07
-5.92151e-07
-2.15873e-06
-9.51594e-07
-6.06357e-07
6.44924e-08
8.38947e-08
1.55167e-07
9.51795e-08
6.43593e-08
8.32694e-09
-2.09189e-08
-2.88232e-08
-1.32841e-09
2.55389e-09
2.35288e-08
1.36879e-08
2.72134e-08
8.27278e-09
2.08531e-08
-7.78629e-10
1.41066e-08
-3.53833e-09
1.18784e-08
-5.84627e-09
5.96803e-09
-1.20066e-08
-5.47621e-09
-2.46278e-08
-2.40057e-08
-4.15811e-08
-2.9681e-08
-3.62541e-08
-5.81509e-08
-1.16263e-07
-1.15276e-07
4.79234e-08
-2.46574e-07
-1.52655e-06
1.66885e-06
4.99976e-06
-6.10289e-06
1.8087e-06
5.20544e-07
-1.69933e-08
1.55414e-08
1.17326e-08
1.33934e-07
4.36233e-08
1.56428e-07
1.19971e-07
-1.42672e-07
-9.61992e-08
-1.18694e-07
-1.01568e-07
-6.26878e-08
-3.93255e-08
-1.47253e-08
-1.37643e-08
2.21093e-10
-7.12085e-09
1.42479e-08
1.14599e-08
4.13596e-08
4.24781e-08
8.13797e-08
1.02309e-07
1.54683e-07
1.41859e-07
2.03184e-07
3.32768e-07
4.49967e-07
3.81123e-07
4.24826e-07
6.33185e-07
5.16859e-07
5.66005e-07
8.07127e-07
1.03438e-06
1.17249e-06
9.59951e-07
2.8022e-06
2.58166e-06
4.14829e-08
1.19343e-07
9.40519e-08
1.23615e-07
5.2319e-08
-9.96757e-09
-2.62946e-08
-1.67276e-08
1.65715e-09
1.70293e-08
2.00569e-08
2.22555e-08
1.58025e-08
1.85913e-08
2.57624e-09
7.8155e-09
1.60905e-09
2.59414e-09
1.29153e-10
-1.24226e-09
-1.36505e-10
-7.76757e-09
-6.79068e-09
-2.11038e-08
-2.4514e-08
-3.92111e-08
-3.91082e-08
-5.30379e-08
-7.74145e-08
-1.205e-07
-1.34612e-07
-9.286e-08
-2.42498e-07
-6.17461e-07
-1.56919e-07
-2.99469e-08
-2.26256e-06
6.44623e-07
-3.48548e-07
-1.08137e-08
-3.46751e-08
4.05427e-08
3.76031e-08
1.96212e-07
6.11083e-08
5.45158e-09
5.57627e-08
-8.26547e-08
-1.17595e-07
-6.64152e-08
-6.80527e-08
-8.8645e-09
-2.44761e-08
1.66534e-08
-1.24059e-08
2.14981e-08
-7.80738e-09
2.65586e-08
-1.13606e-09
2.75731e-08
-5.28575e-10
4.44996e-08
3.25516e-08
5.65708e-08
3.63606e-09
8.02078e-08
1.14983e-07
-3.61101e-08
-3.14263e-07
1.87347e-07
6.24774e-08
-4.50434e-08
2.7075e-08
-3.71178e-07
-6.81614e-07
-1.94482e-06
-7.91782e-07
-9.24653e-07
5.91135e-08
8.23536e-08
1.42389e-07
8.1596e-08
4.40813e-08
8.88336e-09
-3.3223e-08
-2.26436e-08
-1.24428e-08
6.96122e-09
5.71879e-09
1.71292e-08
9.74205e-09
8.52648e-09
-1.45371e-09
6.65187e-09
-1.06649e-08
7.80681e-09
-5.95131e-09
7.29014e-09
-8.87174e-09
-1.35537e-09
-1.88566e-08
-1.46718e-08
-3.29044e-08
-2.62607e-08
-3.68627e-08
-2.23762e-08
-5.2315e-08
-7.17673e-08
-8.5357e-08
5.97629e-08
-1.09387e-07
-7.64199e-07
1.27243e-06
3.71428e-06
-4.69497e-06
1.57056e-06
7.51228e-07
-1.4734e-08
6.80252e-09
7.28011e-09
1.13175e-07
1.77719e-08
1.57855e-07
1.05834e-07
-8.36741e-08
-4.26409e-08
-6.50665e-08
-5.70138e-08
-3.10808e-08
-1.24629e-08
6.63939e-09
1.29506e-08
1.99487e-08
2.38512e-08
3.21558e-08
4.25718e-08
5.39137e-08
7.28997e-08
9.06257e-08
1.17907e-07
1.36423e-07
1.4114e-07
1.82696e-07
2.81785e-07
3.51144e-07
3.24106e-07
3.66588e-07
5.1002e-07
4.64329e-07
5.15855e-07
6.6317e-07
8.75534e-07
7.83477e-07
5.42378e-07
1.95317e-06
1.47784e-06
3.83293e-08
1.09029e-07
8.4746e-08
1.08141e-07
4.32334e-08
-2.80863e-08
-2.36406e-08
-1.66478e-08
2.69228e-09
1.00851e-08
1.68911e-08
1.46616e-08
1.02165e-08
1.75855e-09
-8.39111e-10
-1.74937e-08
1.55764e-08
-1.53707e-08
8.06167e-10
-3.99482e-09
-3.17911e-09
-8.15052e-09
-1.37294e-08
-2.16842e-08
-2.98479e-08
-3.77858e-08
-4.30508e-08
-5.36037e-08
-7.86496e-08
-1.10871e-07
-1.19377e-07
-8.77308e-08
-2.14134e-07
-4.84624e-07
-1.36045e-07
-2.6983e-07
-1.70744e-06
5.36594e-07
-2.13398e-07
-1.51382e-08
-3.99646e-08
3.11271e-08
1.8899e-08
1.78204e-07
5.58773e-08
1.81793e-08
9.93326e-08
-5.6916e-08
-4.6279e-08
-5.79871e-08
-1.60189e-08
-1.40943e-08
2.31724e-08
1.21936e-08
3.86259e-08
2.21648e-08
4.72805e-08
3.1425e-08
5.87362e-08
3.95953e-08
6.70502e-08
5.57587e-08
8.78684e-08
6.84177e-08
8.41823e-08
9.3777e-08
1.3861e-07
1.74714e-08
-1.02387e-07
6.2626e-08
2.60584e-08
-1.13835e-07
-8.1039e-08
-3.10911e-07
-5.88433e-07
-1.82721e-06
-4.22172e-07
-8.81146e-07
5.38093e-08
7.61153e-08
1.28894e-07
7.00601e-08
2.91718e-08
9.45882e-09
-3.41086e-08
-2.70326e-08
-8.53389e-09
-1.35133e-11
1.00224e-08
5.02859e-09
7.69617e-09
-9.2616e-09
-1.97319e-08
2.16131e-08
-1.82416e-08
-6.25809e-09
-1.41227e-08
-7.11493e-09
-3.63727e-10
-1.29398e-08
-1.34063e-08
-2.80731e-08
-2.67665e-08
-3.72094e-08
-2.91141e-08
-3.43577e-08
-3.69177e-08
-6.04112e-08
-4.0762e-08
5.6279e-08
1.08722e-08
-4.09801e-07
8.967e-07
2.31067e-06
-3.47244e-06
1.31141e-06
8.69696e-07
-2.21011e-08
5.24777e-09
-3.91867e-09
9.48984e-08
1.68383e-08
1.44384e-07
1.21732e-07
-4.70665e-08
2.16777e-09
-3.33967e-08
-2.91089e-08
-2.09632e-08
8.11416e-09
1.59971e-08
3.58287e-08
3.40596e-08
4.87485e-08
4.79067e-08
6.51481e-08
6.7278e-08
9.12069e-08
1.00374e-07
1.23985e-07
1.27088e-07
1.36189e-07
1.64772e-07
2.32381e-07
2.75947e-07
2.711e-07
3.14555e-07
4.08593e-07
4.03737e-07
4.49566e-07
5.67149e-07
7.35915e-07
5.2938e-07
2.95104e-07
1.41517e-06
8.6467e-07
3.46229e-08
9.76781e-08
7.61657e-08
9.4697e-08
3.47432e-08
-3.74057e-08
-2.41354e-08
-1.38452e-08
-2.89813e-10
1.06455e-08
1.11438e-08
1.38237e-08
-6.55228e-09
-1.98587e-08
1.66328e-08
-8.12397e-09
4.50746e-09
-3.58575e-08
-1.18337e-08
-1.91616e-08
-1.31118e-08
-1.00244e-08
-1.95751e-08
-2.55104e-08
-3.56207e-08
-4.06947e-08
-4.69671e-08
-5.6361e-08
-7.70309e-08
-1.00005e-07
-1.02262e-07
-7.82827e-08
-1.96848e-07
-3.8051e-07
-1.27589e-07
-4.18868e-07
-1.26998e-06
4.15987e-07
-1.25106e-07
-1.40829e-08
-4.10426e-08
2.09879e-08
1.76732e-08
1.57406e-07
5.03294e-08
4.63471e-08
1.02304e-07
-7.20377e-09
-3.62756e-08
-2.95525e-08
-2.13139e-08
7.30674e-09
1.97829e-08
3.86733e-08
4.07888e-08
5.29746e-08
5.27674e-08
6.43966e-08
6.53062e-08
7.82685e-08
7.7078e-08
9.03908e-08
9.09731e-08
1.01857e-07
1.00337e-07
1.21967e-07
1.23096e-07
7.20464e-08
-1.03104e-08
5.24249e-08
-1.19859e-08
-9.31521e-08
-1.3973e-07
-1.53231e-07
-5.9086e-07
-1.5113e-06
-1.89188e-07
-7.40677e-07
4.74592e-08
6.83394e-08
1.15731e-07
5.47475e-08
1.88637e-08
6.92311e-09
-3.63178e-08
-2.5626e-08
-8.5419e-09
1.55221e-09
8.51351e-09
-7.72159e-10
-1.36097e-08
8.63037e-09
-9.63008e-09
2.27495e-08
-3.41968e-08
-8.63147e-09
-5.00591e-08
-1.84958e-08
-2.53134e-08
-1.79357e-08
-2.46858e-08
-2.99541e-08
-3.76439e-08
-3.78469e-08
-3.89219e-08
-3.55504e-08
-4.10836e-08
-4.37982e-08
-2.39903e-08
5.56746e-08
2.7577e-08
-2.36788e-07
5.66682e-07
1.04923e-06
-2.30995e-06
1.08459e-06
9.38779e-07
-1.829e-08
-1.6228e-11
-4.85247e-09
7.88971e-08
5.40052e-09
1.43132e-07
1.11655e-07
-1.33408e-08
1.91438e-08
-1.57602e-08
-2.74078e-08
-1.19994e-08
3.97045e-09
2.81691e-08
3.70345e-08
5.06877e-08
5.35158e-08
6.44845e-08
6.84906e-08
8.12786e-08
9.04683e-08
1.08595e-07
1.15434e-07
1.21779e-07
1.22264e-07
1.47236e-07
1.85478e-07
2.18259e-07
2.21415e-07
2.65116e-07
3.20099e-07
3.33213e-07
3.7489e-07
4.88561e-07
6.11615e-07
3.47704e-07
1.9879e-07
1.05784e-06
5.41953e-07
2.9153e-08
8.66088e-08
6.25258e-08
8.24971e-08
2.55344e-08
-4.16958e-08
-2.2695e-08
-1.22592e-08
-3.53657e-10
9.1502e-09
1.00532e-08
1.76683e-09
2.0717e-10
-8.29335e-09
2.2245e-08
-8.7622e-09
-3.91124e-09
-4.66751e-08
-2.39239e-08
-4.40497e-08
-3.47518e-08
-2.82362e-08
-2.62419e-08
-3.2969e-08
-3.91922e-08
-4.51531e-08
-4.85692e-08
-5.75297e-08
-7.08124e-08
-8.68952e-08
-8.33731e-08
-7.20459e-08
-1.78836e-07
-2.8293e-07
-1.42685e-07
-4.66382e-07
-8.9575e-07
2.95581e-07
-7.46305e-08
-1.70878e-08
-4.3053e-08
1.53326e-08
7.42637e-09
1.42212e-07
5.07461e-08
5.23003e-08
1.17598e-07
9.42083e-10
-2.00896e-08
-3.17255e-08
-1.93772e-08
3.28513e-09
2.37649e-08
3.91489e-08
4.90796e-08
5.63678e-08
6.23657e-08
6.80625e-08
7.48677e-08
8.28662e-08
8.81024e-08
9.12884e-08
9.69496e-08
1.03699e-07
1.11163e-07
1.19415e-07
1.20442e-07
8.97038e-08
5.09088e-08
5.11677e-08
-4.11133e-09
-7.06994e-08
-9.06697e-08
-5.46375e-08
-5.35107e-07
-1.21188e-06
3.5062e-08
-5.327e-07
4.17274e-08
5.89335e-08
1.01866e-07
4.33859e-08
1.26144e-08
6.55124e-09
-3.52038e-08
-2.24264e-08
-7.66052e-09
2.73431e-09
6.17129e-09
-4.19231e-09
-1.17979e-09
9.65458e-09
9.59672e-09
-3.18765e-09
-1.75659e-08
-1.8189e-08
-4.10456e-08
-5.06984e-08
-4.76854e-08
-3.09613e-08
-3.15176e-08
-3.71025e-08
-4.18657e-08
-4.40794e-08
-4.30112e-08
-4.16142e-08
-4.11419e-08
-3.83672e-08
-1.45879e-08
3.92424e-08
1.17868e-08
-1.30183e-07
2.77834e-07
3.54168e-07
-1.45733e-06
8.42911e-07
8.77474e-07
-2.29477e-08
1.45285e-11
-1.17497e-08
6.59602e-08
8.67254e-09
1.30282e-07
1.17689e-07
3.46852e-09
3.04751e-08
-8.89366e-09
-2.68889e-08
-1.70052e-08
3.47782e-09
2.37538e-08
3.91295e-08
4.8937e-08
5.65672e-08
6.24011e-08
6.93296e-08
7.67453e-08
8.68042e-08
9.87569e-08
1.05198e-07
1.05925e-07
1.08549e-07
1.22024e-07
1.47466e-07
1.67983e-07
1.79021e-07
2.12118e-07
2.424e-07
2.58864e-07
3.0014e-07
4.15692e-07
4.81381e-07
2.19163e-07
1.67494e-07
8.18858e-07
3.97595e-07
2.4661e-08
7.53338e-08
5.22481e-08
7.12883e-08
2.00212e-08
-4.1669e-08
-1.87327e-08
-1.23482e-08
1.10736e-10
7.25558e-09
7.10741e-09
-4.20038e-10
-2.16449e-09
1.09598e-08
5.40903e-09
-4.4291e-09
-1.00362e-08
-2.02576e-08
-4.50204e-08
-6.43421e-08
-3.79464e-08
-4.14972e-08
-3.53265e-08
-3.66944e-08
-4.20015e-08
-4.5577e-08
-4.85595e-08
-5.38193e-08
-6.21087e-08
-7.0828e-08
-6.45705e-08
-6.52324e-08
-1.46961e-07
-2.01271e-07
-1.45134e-07
-4.23568e-07
-6.1974e-07
1.80196e-07
-6.22681e-08
-1.61595e-08
-4.21305e-08
8.81536e-09
8.73597e-09
1.25213e-07
4.66694e-08
6.40715e-08
1.10478e-07
1.77814e-08
-1.80022e-08
-3.03771e-08