/*--------------------------------*- C++ -*----------------------------------*\
| =========                 |                                                 |
| \\      /  F ield         | OpenFOAM: The Open Source CFD Toolbox           |
|  \\    /   O peration     | Version:  2312                                  |
|   \\  /    A nd           | Website:  www.openfoam.com                      |
|    \\/     M anipulation  |                                                 |
\*---------------------------------------------------------------------------*/
FoamFile
{
    version     2.0;
    format      ascii;
    arch        "LSB;label=32;scalar=64";
    class       volScalarField;
    location    "300";
    object      magR;
}
// * * * * * * * * * * * * * * * * * * * * * * * * * * * * * * * * * * * * * //

dimensions      [0 2 -2 0 0 0 0];

internalField   nonuniform List<scalar> 
10720
(
0.023545
0.0274702
0.0324862
0.0392998
0.0473724
0.0576481
0.0707872
0.0870635
0.107731
0.1341
0.168168
0.213146
0.273485
0.356499
0.474667
0.647577
0.913893
1.32422
2.04485
3.16595
5.69536
9.51444
22.2912
43.4764
48.1522
46.0648
45.2732
46.1077
47.1381
47.4004
46.7738
45.3786
43.1235
40.0374
36.0518
31.2603
24.7571
18.2977
4.26542
0.0200382
0.0171938
0.0140053
0.0112708
0.00868879
0.00636168
0.00448223
0.00335271
0.00350562
0.0047418
0.00705246
0.010621
0.0158749
0.0234905
0.0343292
0.0497026
0.071807
0.104759
0.15617
0.239844
0.383237
0.636875
1.12071
2.05209
4.08254
8.349
18.6603
38.4546
54.4966
61.3816
63.3348
63.6546
63.2881
62.393
61.015
59.2297
56.6178
53.5762
43.8816
0.00360494
0.00358464
0.00354327
0.00344072
0.00328216
0.00309993
0.00288497
0.00264327
0.00240409
0.0021696
0.00194602
0.00179085
0.00176971
0.00194463
0.00252592
0.00397568
0.00759676
0.0159294
0.0385263
0.0944205
0.279638
0.772179
2.37471
7.60437
14.8656
22.3672
29.4398
34.4499
35.4434
32.5169
27.7104
22.8456
18.9
15.8763
13.5537
11.7115
10.424
9.08159
9.75145
0.00357245
0.00352429
0.00342554
0.00327909
0.00307867
0.00281427
0.00250389
0.00220278
0.0019242
0.00164773
0.00138461
0.00115681
0.000964358
0.000801141
0.000662833
0.000546314
0.000447481
0.000363865
0.000290612
0.000223737
0.000157663
9.31607e-05
3.22808e-05
5.26318e-06
1.33665e-05
0.00191512
0.0103678
0.0836145
0.281661
0.5513
0.824229
1.06447
1.26651
1.44404
1.60993
1.78063
1.96114
2.36366
3.28774
0.00241996
0.00240087
0.00234674
0.00226395
0.00217738
0.00208223
0.00198604
0.00189953
0.00182513
0.00176742
0.0017228
0.00169725
0.00169047
0.00170526
0.00171163
0.00165541
0.001413
0.00134611
0.000154156
0.00776173
4.67981e-08
0.00171707
3.71565e-05
0.0207327
0.22724
0.805344
2.04225
4.57905
9.03984
14.9292
20.2423
22.8466
22.3281
20.0452
17.3902
14.8982
12.9458
10.7174
12.0419
0.00243879
0.00243578
0.0024293
0.00238602
0.00230927
0.00218044
0.00200281
0.00179996
0.00161146
0.0014176
0.001209
0.00100698
0.000826188
0.0006705
0.000541958
0.000438166
0.000357271
0.000295909
0.000251274
0.000219208
0.000197115
0.000182777
0.000174903
0.000170571
0.000170342
0.000169171
0.000179929
0.000106718
0.000756114
0.00502053
0.0142298
0.0299712
0.0675583
0.141364
0.25036
0.383838
0.528916
0.633092
1.08058
0.00204233
0.00204655
0.00203626
0.0020193
0.00198431
0.00193222
0.00186729
0.00178623
0.00169357
0.0015911
0.00148098
0.00136475
0.00124353
0.00111956
0.000993942
0.000861636
0.000729476
0.000620681
0.00047034
0.000289419
3.41663e-05
0.000166439
1.32182e-05
0.00517891
0.0268332
0.000387491
0.0048705
0.0071479
0.051329
0.453918
1.96696
5.3454
10.0114
13.8852
15.5513
15.3239
14.4097
12.6113
13.5806
0.00202043
0.00198724
0.00193514
0.00187239
0.00179372
0.0016907
0.00157042
0.00144242
0.00130916
0.00116454
0.00101505
0.000874895
0.000751072
0.000644358
0.000554194
0.000478605
0.000416415
0.000365765
0.000325112
0.000292016
0.000265123
0.000242534
0.00022229
0.000201001
0.000179127
0.000160937
0.000147188
0.000137306
0.000125331
0.000109868
8.25627e-05
5.19588e-05
0.000414996
0.000706244
0.00264701
0.0142148
0.0466298
0.117863
0.429158
0.00153222
0.00152951
0.00151757
0.00149627
0.00146332
0.00141864
0.00136463
0.00130212
0.00123316
0.00116195
0.00109079
0.00102254
0.000960239
0.000905793
0.000860513
0.000822519
0.000782359
0.000732186
0.000684693
0.00060132
0.000469432
0.000230138
2.78043e-05
5.65998e-06
0
1.95257e-05
0.00106118
0.00665184
0.0332428
0.017204
0.036921
0.0652714
0.411824
2.4027
6.16377
9.98302
12.3941
12.8445
14.2954
0.00152825
0.00151744
0.00149592
0.00146145
0.00141286
0.00134402
0.00126163
0.00117317
0.00107887
0.00097535
0.000867658
0.000762279
0.000663314
0.000572483
0.000491006
0.000419399
0.000357836
0.000306045
0.000263424
0.000228676
0.000200623
0.000177748
0.000158427
0.000139998
0.000121269
0.000103972
9.02341e-05
8.07354e-05
7.65672e-05
7.07141e-05
8.65713e-05
2.03416e-05
0.000134445
0.000653083
0.00160924
0.0031835
0.00116303
0.00364705
0.0831559
0.00125591
0.00126127
0.00126076
0.00125626
0.00124392
0.00122392
0.00119713
0.0011625
0.00112074
0.00107298
0.00101962
0.000961936
0.000901283
0.000838738
0.000775408
0.000709762
0.000638211
0.000564802
0.000496463
0.000436567
0.000395047
0.000336044
0.000275608
7.28226e-05
1.26324e-05
5.78527e-06
1.19202e-06
0
0
0.00242025
0.00881893
0.0455227
0.0083396
0.111219
0.244517
2.28587
6.37478
10.2707
13.6412
0.00124453
0.0012288
0.00120592
0.00117573
0.00113699
0.00108605
0.00102743
0.000964527
0.000896136
0.00082053
0.000741347
0.000662534
0.000587114
0.000516845
0.000452947
0.000396217
0.000346905
0.000304869
0.000269621
0.000240254
0.000215741
0.000194781
0.000175933
0.000157179
0.000137705
0.000119165
0.000102992
8.94565e-05
7.81031e-05
6.86629e-05
6.05683e-05
5.32087e-05
4.21059e-05
2.69875e-05
1.90463e-08
5.38485e-07
0.00019479
0.000836952
0.00945526
0.00101595
0.00102041
0.00102112
0.00101854
0.00101043
0.000996379
0.000976732
0.000950907
0.000919132
0.000882284
0.000840993
0.000796293
0.000749562
0.000702129
0.000655103
0.000610052
0.000569215
0.000531177
0.000492362
0.000451758
0.000412326
0.00038004
0.000357863
0.000298069
0.000198649
0.000102385
1.79222e-05
6.27379e-06
3.57799e-06
3.39675e-07
0
0
0.00105783
0.0351614
0.0267606
0.156997
1.04774
5.23823
10.9446
0.00100761
0.00099631
0.000979876
0.000957246
0.000927892
0.000890224
0.00084789
0.000801748
0.000750937
0.00069522
0.000636657
0.000577459
0.000519422
0.000463785
0.000411585
0.000363656
0.00032046
0.000282275
0.000249102
0.000220551
0.00019607
0.000174842
0.000155819
0.00013754
0.000119236
0.000101892
8.66466e-05
7.38147e-05
6.31318e-05
5.4458e-05
4.79675e-05
4.3744e-05
4.12992e-05
3.84564e-05
3.51582e-05
1.60234e-05
1.54561e-06
7.51216e-08
0.000273174
0.000842048
0.000847797
0.000851211
0.000852587
0.000850252
0.000843875
0.000833709
0.000819008
0.000799768
0.0007764
0.000748868
0.000717708
0.000683531
0.000646898
0.00060846
0.000569004
0.000528031
0.000484488
0.000440405
0.000398639
0.000361542
0.000332323
0.000311974
0.000297887
0.000270078
0.000224514
0.000167289
0.000110592
6.53627e-05
5.35695e-06
3.60199e-06
1.59513e-07
0
0
0.00386606
0.0664568
0.121872
1.19156
6.55832
0.000833412
0.000823002
0.000809049
0.000790531
0.000767328
0.000738573
0.000707158
0.000672529
0.000634186
0.000592589
0.000548673
0.000503815
0.000459122
0.000415432
0.000373597
0.000334428
0.000298418
0.000266
0.000237334
0.000212256
0.000190362
0.000171037
0.00015344
0.000136469
0.000119548
0.000103401
8.89161e-05
7.63413e-05
6.5413e-05
5.58877e-05
4.76976e-05
4.06861e-05
3.46893e-05
2.9568e-05
2.59966e-05
2.27222e-05
1.60893e-05
1.8147e-06
1.85997e-05
0.000702414
0.00070795
0.000711984
0.000714502
0.00071441
0.000711345
0.000705377
0.000695848
0.000682673
0.000665975
0.000645701
0.000622135
0.000595695
0.000566805
0.000536093
0.000504051
0.000471413
0.000439448
0.000408268
0.000377846
0.000348633
0.000321948
0.000298848
0.000279076
0.000258148
0.000232513
0.000204266
0.00017382
0.00014751
0.000107675
7.14582e-05
3.20391e-06
1.91552e-06
0
0
0
0.0383803
0.164775
2.61013
0.000694828
0.000686044
0.000674694
0.000659622
0.000641245
0.000619056
0.000595139
0.000568648
0.000539356
0.000507865
0.000474618
0.000440399
0.000405872
0.00037155
0.000338026
0.000305915
0.000275697
0.000247773
0.000222394
0.000199595
0.000179205
0.000160835
0.000143898
0.000127652
0.000111694
9.64879e-05
8.27665e-05
7.08066e-05
6.04539e-05
5.15312e-05
4.39987e-05
3.79061e-05
3.32599e-05
3.00215e-05
2.81748e-05
2.84327e-05
3.0435e-05
3.21321e-05
1.21549e-06
0.000592157
0.000597583
0.000602108
0.00060561
0.000607238
0.000606817
0.000604286
0.000599086
0.000591131
0.000580414
0.000566762
0.000550307
0.000531244
0.000509786
0.000486272
0.000461041
0.000434618
0.000406957
0.00037825
0.000349736
0.0003229
0.000298847
0.000277823
0.000258159
0.000237051
0.000213088
0.000188293
0.000166479
0.00014985
0.000136422
0.000123596
9.01616e-05
3.81262e-05
3.32395e-06
0
0
0
0.0573911
0.673183
0.00058521
0.000577556
0.000568018
0.000555488
0.000540673
0.000523356
0.000504722
0.000484095
0.000461499
0.000437372
0.000411934
0.000385655
0.000358877
0.000331873
0.000305082
0.000278952
0.000253852
0.000230187
0.000208213
0.000188057
0.00016968
0.000152845
0.000137152
0.000122109
0.000107407
9.3387e-05
8.06226e-05
6.93614e-05
5.94919e-05
5.08521e-05
4.33806e-05
3.70457e-05
3.17586e-05
2.7605e-05
2.45739e-05
2.39814e-05
2.36103e-05
3.97e-05
1.64092e-05
0.000502757
0.000507837
0.000512392
0.000516238
0.000518703
0.000519719
0.000519116
0.000516504
0.000511714
0.000504713
0.000495287
0.000483469
0.00046933
0.00045296
0.0004346
0.000414524
0.000393033
0.000370617
0.000347781
0.000324981
0.000302946
0.000282248
0.000263121
0.000244572
0.000224499
0.000201799
0.000178014
0.000156462
0.000139229
0.000126876
0.000117923
0.00011277
9.89229e-05
5.73588e-05
3.78848e-06
0
0
0.00305701
0.171902
0.000496535
0.000489909
0.000481906
0.000471418
0.000459334
0.000445657
0.000430882
0.000414585
0.000396975
0.000378309
0.000358654
0.000338307
0.000317454
0.000296214
0.000274831
0.000253621
0.000232856
0.000212852
0.000193878
0.00017609
0.000159514
0.000144046
0.000129446
0.0001154
0.000101731
8.86928e-05
7.67313e-05
6.60848e-05
5.67059e-05
4.84881e-05
4.13985e-05
3.54474e-05
3.0632e-05
2.70201e-05
2.45506e-05
2.42445e-05
2.41258e-05
3.42523e-05
4.26887e-05
0.00042974
0.000434473
0.000438918
0.000442876
0.000445848
0.00044778
0.000448529
0.000447734
0.00044527
0.000441068
0.000434915
0.000426791
0.000416688
0.000404629
0.00039073
0.000375152
0.000358131
0.000340014
0.000320932
0.000301306
0.000282005
0.000263682
0.000246493
0.000229695
0.000211704
0.000191551
0.000170232
0.000150206
0.000133264
0.000119712
0.000108767
0.000101787
9.85653e-05
9.49449e-05
6.18661e-05
3.0426e-06
0
0.000985047
0.0597698
0.000424172
0.000418367
0.000411589
0.000402753
0.000392792
0.000381824
0.00036995
0.000356928
0.000343062
0.000328457
0.000313144
0.000297295
0.000280984
0.000264215
0.000247156
0.000229993
0.000212891
0.000196104
0.000179842
0.000164291
0.000149532
0.000135536
0.000122154
0.000109206
9.66304e-05
8.46183e-05
7.35203e-05
6.3551e-05
5.47015e-05
4.68966e-05
4.01037e-05
3.43294e-05
2.95456e-05
2.58191e-05
2.31748e-05
2.24884e-05
2.27366e-05
2.92256e-05
4.66865e-05
0.000369383
0.00037374
0.000377966
0.00038186
0.000385031
0.000387454
0.000389014
0.000389387
0.000388458
0.000386156
0.000382279
0.000376782
0.00036961
0.000360726
0.000350195
0.000338112
0.000324613
0.000309998
0.000294492
0.000278389
0.000262218
0.000246463
0.000231229
0.000216035
0.000199815
0.000181869
0.000162915
0.000144846
0.000129153
0.000115986
0.000104763
9.54695e-05
8.907e-05
8.66888e-05
9.12639e-05
4.66189e-05
6.56042e-08
0.000311947
0.0198498
0.000364428
0.00035933
0.000353536
0.000346065
0.000337787
0.000328867
0.000319214
0.000308703
0.000297675
0.000286152
0.000274123
0.000261681
0.000248849
0.000235597
0.000221968
0.000208083
0.000194043
0.000180023
0.000166186
0.000152684
0.000139622
0.000127017
0.00011481
0.000102926
9.13673e-05
8.03025e-05
7.00058e-05
6.06734e-05
5.23294e-05
4.4931e-05
3.84639e-05
3.29509e-05
2.8392e-05
2.48546e-05
2.23652e-05
2.16309e-05
2.1939e-05
2.69057e-05
4.29097e-05
0.000319082
0.00032306
0.000327021
0.000330762
0.000333972
0.000336664
0.00033871
0.00033984
0.00033997
0.00033901
0.000336797
0.000333251
0.000328324
0.000321955
0.000314147
0.000304939
0.000294406
0.000282778
0.000270204
0.000256857
0.000243132
0.000229514
0.000216098
0.000202544
0.000188088
0.000172199
0.000155408
0.000139205
0.000124885
0.000112654
0.00010209
9.28797e-05
8.51847e-05
7.95451e-05
7.84845e-05
9.49128e-05
9.09825e-08
3.0953e-05
0.004979
0.000314654
0.000310178
0.000305175
0.00029883
0.000291908
0.000284552
0.000276611
0.000268076
0.000259218
0.00025004
0.000240509
0.000230687
0.000220549
0.000210025
0.000199137
0.000187918
0.000176413
0.000164745
0.000153032
0.000141392
0.000129916
0.000118658
0.000107616
9.67941e-05
8.62372e-05
7.6092e-05
6.65888e-05
5.78998e-05
5.00699e-05
4.30841e-05
3.69391e-05
3.1663e-05
2.72558e-05
2.37836e-05
2.1285e-05
2.04266e-05
2.06095e-05
2.49116e-05
3.85964e-05
0.00027682
0.000280427
0.000284108
0.00028763
0.000290772
0.000293569
0.000295866
0.000297463
0.00029829
0.000298252
0.000297213
0.000295103
0.000291843
0.000287367
0.000281641
0.000274686
0.000266543
0.000257338
0.000247237
0.000236354
0.000224901
0.000213295
0.000201621
0.000189642
0.000176835
0.000162813
0.000147958
0.000133437
0.000120369
0.000109055
9.92154e-05
9.06554e-05
8.3159e-05
7.75715e-05
6.98504e-05
8.73143e-05
4.39408e-05
4.15778e-07
0.000320675
0.000272853
0.000268916
0.000264576
0.00025915
0.000253326
0.000247189
0.000240603
0.000233613
0.000226441
0.00021907
0.000211467
0.000203652
0.000195594
0.000187213
0.000178486
0.000169423
0.000160019
0.000150338
0.000140458
0.00013047
0.00012046
0.000110489
0.000100578
9.07647e-05
8.11455e-05
7.18712e-05
6.31261e-05
5.50601e-05
4.77335e-05
4.11535e-05
3.53296e-05
3.0298e-05
2.607e-05
2.27154e-05
2.02719e-05
1.93434e-05
1.94127e-05
2.3048e-05
3.4812e-05
0.00024106
0.000244329
0.00024772
0.000250999
0.000254022
0.000256806
0.000259218
0.000261091
0.000262368
0.000262964
0.000262756
0.000261675
0.000259656
0.000256617
0.000252536
0.000247385
0.00024118
0.000233979
0.000225944
0.000217112
0.0002076
0.000197753
0.000187665
0.000177183
0.000165927
0.00015362
0.00014054
0.000127592
0.000115717
0.000105269
9.60943e-05
8.81087e-05
8.1074e-05
7.58869e-05
6.91162e-05
7.01541e-05
8.42076e-05
1.78729e-07
2.12288e-05
0.000237517
0.000234029
0.000230252
0.000225588
0.000220659
0.000215489
0.000209977
0.00020421
0.000198354
0.000192386
0.000186271
0.000180021
0.000173585
0.000166878
0.000159872
0.000152532
0.000144845
0.000136831
0.000128532
0.000120009
0.000111325
0.000102543
9.36997e-05
8.48678e-05
7.61565e-05
6.77131e-05
5.9694e-05
5.22346e-05
4.54041e-05
3.92264e-05
3.37215e-05
2.89312e-05
2.48721e-05
2.16146e-05
1.91992e-05
1.81817e-05
1.81464e-05
2.11938e-05
3.1383e-05
0.000210614
0.000213578
0.000216677
0.000219716
0.000222577
0.000225279
0.000227709
0.000229724
0.000231267
0.000232274
0.000232638
0.000232297
0.000231199
0.00022926
0.000226438
0.000222698
0.000218034
0.00021247
0.000206129
0.000199033
0.000191226
0.000182952
0.00017432
0.000165234
0.000155421
0.000144675
0.000133209
0.00012172
0.000110987
0.000101383
9.28535e-05
8.53581e-05
7.88074e-05
7.35155e-05
6.94202e-05
6.12267e-05
9.20889e-05
4.77001e-07
4.49095e-10
0.000207458
0.000204364
0.000201051
0.000197025
0.00019283
0.000188437
0.00018379
0.000178999
0.000174181
0.000169311
0.000164359
0.000159319
0.000154145
0.000148758
0.00014311
0.000137164
0.000130878
0.000124256
0.000117305
0.000110063
0.000102573
9.48818e-05
8.70368e-05
7.9125e-05
7.12715e-05
6.3609e-05
5.62814e-05
4.94077e-05
4.30604e-05
3.72774e-05
3.20874e-05
2.75364e-05
2.36487e-05
2.04954e-05
1.81188e-05
1.70247e-05
1.68939e-05
1.942e-05
2.82056e-05
0.000184558
0.000187238
0.000190058
0.000192865
0.000195536
0.000198124
0.000200503
0.000202562
0.000204255
0.000205526
0.00020628
0.000206474
0.000206041
0.000204915
0.000203054
0.000200416
0.000196985
0.00019275
0.000187803
0.000182154
0.000175808
0.00016891
0.000161589
0.000153787
0.000145299
0.000135975
0.000125974
0.000115833
0.000106192
9.74161e-05
8.95317e-05
8.25112e-05
7.64118e-05
7.10795e-05
6.80545e-05
5.95489e-05
7.80582e-05
2.95356e-05
5.92975e-07
0.000181742
0.000178993
0.000176076
0.000172584
0.000168996
0.000165234
0.000161291
0.00015728
0.000153285
0.000149279
0.000145239
0.000141152
0.00013697
0.000132616
0.000128048
0.000123216
0.000118072
0.000112601
0.000106792
0.000100656
9.42246e-05
8.75339e-05
8.06229e-05
7.35698e-05
6.65069e-05
5.95806e-05
5.29107e-05
4.66e-05
4.07225e-05
3.53255e-05
3.04452e-05
2.61299e-05
2.24108e-05
1.93582e-05
1.70164e-05
1.58481e-05
1.56289e-05
1.77211e-05
2.52592e-05
0.00016215
0.000164563
0.000167134
0.000169703
0.000172192
0.000174633
0.000176927
0.000178964
0.000180723
0.000182145
0.000183153
0.000183704
0.000183751
0.000183226
0.0001821
0.000180318
0.000177856
0.0001747
0.000170888
0.000166441
0.000161336
0.000155638
0.000149489
0.000142854
0.000135573
0.000127531
0.000118852
0.000109949
0.000101344
9.33751e-05
8.61277e-05
7.95973e-05
7.38894e-05
6.88049e-05
6.55468e-05
5.99669e-05
6.3745e-05
5.98868e-05
7.08261e-06
0.000159632
0.000157186
0.000154608
0.000151571
0.000148478
0.00014524
0.000141873
0.000138494
0.000135156
0.00013184
0.000128519
0.00012518
0.000121777
0.000118241
0.000114528
0.00011059
0.000106374
0.000101852
9.7003e-05
9.18248e-05
8.63217e-05
8.05181e-05
7.44491e-05
6.81979e-05
6.18881e-05
5.56516e-05
4.95989e-05
4.3823e-05
3.83971e-05
3.33742e-05
2.8796e-05
2.4712e-05
2.116e-05
1.8208e-05
1.59028e-05
1.46684e-05
1.4368e-05
1.60968e-05
2.25357e-05
0.000142793
0.000144966
0.000147302
0.000149652
0.000151951
0.00015424
0.000156416
0.000158397
0.000160159
0.000161653
0.000162815
0.000163611
0.000163998
0.000163923
0.000163344
0.000162221
0.000160519
0.00015822
0.000155323
0.000151866
0.000147808
0.000143155
0.000138037
0.000132445
0.00012625
0.000119361
0.000111871
0.000104099
9.64637e-05
8.92743e-05
8.26477e-05
7.6615e-05
7.1262e-05
6.6559e-05
6.28611e-05
5.95736e-05
5.62482e-05
6.4388e-05
3.00963e-05
0.000140541
0.000138359
0.000136077
0.000133429
0.00013074
0.000127941
0.000125052
0.000122183
0.000119375
0.000116608
0.00011386
0.000111113
0.000108325
0.000105438
0.000102407
9.91845e-05
9.57214e-05
9.19824e-05
8.79358e-05
8.35682e-05
7.88774e-05
7.38696e-05
6.85668e-05
6.30466e-05
5.74279e-05
5.18302e-05
4.63556e-05
4.10874e-05
3.60952e-05
3.14343e-05
2.71503e-05
2.32926e-05
1.99049e-05
1.70518e-05
1.47832e-05
1.34887e-05
1.31141e-05
1.45506e-05
2.00403e-05
0.000126006
0.000127966
0.000130083
0.000132227
0.000134344
0.000136473
0.000138518
0.000140415
0.00014214
0.000143653
0.000144899
0.00014585
0.000146469
0.00014671
0.000146538
0.000145914
0.000144802
0.000143178
0.000141029
0.000138391
0.000135208
0.000131454
0.000127238
0.000122568
0.000117342
0.000111481
0.000105056
9.83088e-05
9.15762e-05
8.51315e-05
7.91068e-05
7.35654e-05
6.85621e-05
6.42149e-05
6.03651e-05
5.79169e-05
5.32984e-05
5.79239e-05
4.69305e-05
0.000123992
0.000122042
0.000120019
0.000117703
0.000115352
0.000112918
0.000110428
0.000107979
0.000105601
0.000103277
0.000100982
9.87037e-05
9.64061e-05
9.40336e-05
9.15472e-05
8.89002e-05
8.60454e-05
8.29488e-05
7.95743e-05
7.58971e-05
7.19023e-05
6.75932e-05
6.2982e-05
5.81286e-05
5.31384e-05
4.81303e-05
4.31961e-05
3.84071e-05
3.3828e-05
2.95148e-05
2.55151e-05
2.18777e-05
1.86508e-05
1.58946e-05
1.36635e-05
1.23163e-05
1.18748e-05
1.30777e-05
1.7757e-05
0.000111398
0.000113163
0.000115084
0.000117033
0.000118978
0.000120947
0.000122857
0.000124653
0.000126315
0.000127808
0.000129084
0.000130124
0.000130895
0.000131357
0.000131485
0.000131236
0.00013058
0.000129491
0.000127943
0.000125965
0.000123502
0.000120513
0.000117079
0.000113217
0.000108849
0.000103902
9.84241e-05
9.26027e-05
8.67041e-05
8.09637e-05
7.55199e-05
7.04547e-05
6.58119e-05
6.17572e-05
5.80192e-05
5.55717e-05
5.17749e-05
5.14191e-05
5.08149e-05
0.000109599
0.00010785
0.000106053
0.00010402
0.000101957
9.98336e-05
9.76763e-05
9.55727e-05
9.35452e-05
9.15762e-05
8.96503e-05
8.77494e-05
8.58405e-05
8.38768e-05
8.18231e-05
7.964e-05
7.72801e-05
7.47083e-05
7.18894e-05
6.87944e-05
6.54026e-05
6.17027e-05
5.77004e-05
5.34455e-05
4.90342e-05
4.45706e-05
4.01359e-05
3.57949e-05
3.16061e-05
2.76244e-05
2.38981e-05
2.04753e-05
1.74048e-05
1.47438e-05
1.25506e-05
1.11577e-05
1.06583e-05
1.16805e-05
1.56786e-05
9.86462e-05
0.000100237
0.000101975
0.000103747
0.00010553
0.000107342
0.000109117
0.000110801
0.000112385
0.000113831
0.000115104
0.000116186
0.000117051
0.000117664
0.000118002
0.000118031
0.00011772
0.000117045
0.000115975
0.000114526
0.000112656
0.000110315
0.000107552
0.000104393
0.000100776
9.66326e-05
9.1994e-05
8.70031e-05
8.18688e-05
7.67903e-05
7.19014e-05
6.72937e-05
6.3014e-05
5.92155e-05
5.56987e-05
5.30579e-05
5.01261e-05
4.71781e-05
4.83058e-05
9.70385e-05
9.54704e-05
9.38705e-05
9.20796e-05
9.02628e-05
8.84031e-05
8.6524e-05
8.47081e-05
8.29688e-05
8.12907e-05
7.9659e-05
7.80604e-05
7.6463e-05
7.48289e-05
7.31253e-05
7.13129e-05
6.93531e-05
6.72128e-05
6.48544e-05
6.22474e-05
5.93684e-05
5.61989e-05
5.27353e-05
4.90176e-05
4.5128e-05
4.11613e-05
3.71852e-05
3.32606e-05
2.94395e-05
2.57735e-05
2.23098e-05
1.9094e-05
1.61755e-05
1.36078e-05
1.14528e-05
1.00201e-05
9.46988e-06
1.03592e-05
1.37975e-05
8.74851e-05
8.8918e-05
9.04888e-05
9.20994e-05
9.37265e-05
9.53919e-05
9.7032e-05
9.86037e-05
0.000100094
0.000101478
0.000102721
0.000103811
0.000104722
0.000105432
0.000105917
0.000106148
0.000106098
0.00010574
0.000105048
0.000104026
0.000102639
0.000100842
9.86479e-05
9.60932e-05
9.31259e-05
8.96837e-05
8.57833e-05
8.1533e-05
7.70927e-05
7.263e-05
6.82673e-05
6.40991e-05
6.01754e-05
5.66236e-05
5.33328e-05
5.05844e-05
4.805e-05
4.43872e-05
4.4434e-05
8.60443e-05
8.46418e-05
8.32131e-05
8.16317e-05
8.00269e-05
7.8392e-05
7.67491e-05
7.51712e-05
7.36694e-05
7.22292e-05
7.08397e-05
6.94863e-05
6.81415e-05
6.67698e-05
6.53441e-05
6.38326e-05
6.21987e-05
6.0411e-05
5.84339e-05
5.62373e-05
5.37948e-05
5.10831e-05
4.80916e-05
4.48496e-05
4.14273e-05
3.79074e-05
3.43549e-05
3.08159e-05
2.7339e-05
2.39719e-05
2.07586e-05
1.77424e-05
1.49718e-05
1.24957e-05
1.03788e-05
8.91143e-06
8.31778e-06
9.11236e-06
1.20985e-05
7.76903e-05
7.89802e-05
8.03991e-05
8.18629e-05
8.33452e-05
8.48714e-05
8.63816e-05
8.7839e-05
8.92354e-05
9.05446e-05
9.17407e-05
9.2813e-05
9.37412e-05
9.45058e-05
9.50859e-05
9.54597e-05
9.5601e-05
9.54855e-05
9.50891e-05
9.4403e-05
9.34094e-05
9.20568e-05
9.03401e-05
8.82988e-05
8.58933e-05
8.30611e-05
7.98075e-05
7.62126e-05
7.2399e-05
6.85022e-05
6.46342e-05
6.08843e-05
5.73048e-05
5.40016e-05
5.09144e-05
4.81748e-05
4.57202e-05
4.21061e-05
4.09026e-05
7.63987e-05
7.51429e-05
7.38652e-05
7.24661e-05
7.10451e-05
6.96019e-05
6.81612e-05
6.67846e-05
6.54801e-05
6.42367e-05
6.3044e-05
6.18882e-05
6.07455e-05
5.95882e-05
5.839e-05
5.71209e-05
5.57512e-05
5.4252e-05
5.25911e-05
5.07363e-05
4.86619e-05
4.63424e-05
4.37629e-05
4.0942e-05
3.79394e-05
3.48239e-05
3.16554e-05
2.84713e-05
2.5315e-05
2.22285e-05
1.92534e-05
1.64292e-05
1.38022e-05
1.14165e-05
9.33704e-06
7.83852e-06
7.20724e-06
7.9439e-06
1.05748e-05
6.90736e-05
7.02363e-05
7.15177e-05
7.28449e-05
7.41946e-05
7.5589e-05
7.69759e-05
7.83209e-05
7.96217e-05
8.08508e-05
8.19896e-05
8.30269e-05
8.39492e-05
8.47363e-05
8.53748e-05
8.58453e-05
8.61241e-05
8.619e-05
8.60198e-05
8.55989e-05
8.49189e-05
8.39325e-05
8.26151e-05
8.10096e-05
7.90812e-05
7.67715e-05
7.40775e-05
7.10578e-05
6.78058e-05
6.44268e-05
6.10185e-05
5.76637e-05
5.44154e-05
5.13561e-05
4.84599e-05
4.57918e-05
4.33195e-05
3.98977e-05
3.78849e-05
6.79175e-05
6.67915e-05
6.56466e-05
6.44071e-05
6.31461e-05
6.18683e-05
6.06009e-05
5.93935e-05
5.82551e-05
5.71749e-05
5.61449e-05
5.51517e-05
5.41746e-05
5.31894e-05
5.21747e-05
5.11045e-05
4.99506e-05
4.8687e-05
4.72866e-05
4.57189e-05
4.3956e-05
4.19712e-05
3.97461e-05
3.72934e-05
3.46618e-05
3.19122e-05
2.9091e-05
2.62332e-05
2.33743e-05
2.05511e-05
1.78023e-05
1.51628e-05
1.26747e-05
1.03785e-05
8.33695e-06
6.80928e-06
6.14437e-06
6.85452e-06
9.21336e-06
6.14785e-05
6.25263e-05
6.36841e-05
6.48856e-05
6.61127e-05
6.73849e-05
6.86539e-05
6.98928e-05
7.10974e-05
7.22453e-05
7.33189e-05
7.43109e-05
7.52095e-05
7.59985e-05
7.66676e-05
7.71985e-05
7.75716e-05
7.77701e-05
7.77707e-05
7.75576e-05
7.71257e-05
7.64333e-05
7.54485e-05
7.42059e-05
7.26801e-05
7.08161e-05
6.86049e-05
6.60873e-05
6.33324e-05
6.04227e-05
5.74383e-05
5.44532e-05
5.15194e-05
4.87033e-05
4.59878e-05
4.3419e-05
4.09415e-05
3.76743e-05
3.52122e-05
6.04441e-05
5.94345e-05
5.84073e-05
5.73069e-05
5.61858e-05
5.50512e-05
5.39325e-05
5.28708e-05
5.18726e-05
5.09285e-05
5.00325e-05
4.91734e-05
4.83326e-05
4.74889e-05
4.66228e-05
4.57136e-05
4.47364e-05
4.36689e-05
4.24834e-05
4.11535e-05
3.96533e-05
3.79552e-05
3.6037e-05
3.39073e-05
3.1604e-05
2.91793e-05
2.66724e-05
2.41115e-05
2.15263e-05
1.89497e-05
1.64143e-05
1.39517e-05
1.15991e-05
9.39192e-06
7.38848e-06
5.8317e-06
5.13466e-06
5.84742e-06
8.00599e-06
5.47723e-05
5.57151e-05
5.67617e-05
5.78482e-05
5.89627e-05
6.01219e-05
6.12802e-05
6.24186e-05
6.35288e-05
6.45956e-05
6.56008e-05
6.65404e-05
6.74025e-05
6.81777e-05
6.88545e-05
6.94185e-05
6.98552e-05
7.01462e-05
7.02747e-05
7.02215e-05
6.99851e-05
6.95261e-05
6.8813e-05
6.78699e-05
6.66804e-05
6.51947e-05
6.33964e-05
6.1314e-05
5.89967e-05
5.65068e-05
5.39107e-05
5.12706e-05
4.86304e-05
4.60521e-05
4.35159e-05
4.10579e-05
3.8608e-05
3.54637e-05
3.27614e-05
5.38451e-05
5.29404e-05
5.2019e-05
5.10399e-05
5.00418e-05
4.90335e-05
4.80424e-05
4.71052e-05
4.62258e-05
4.53967e-05
4.46129e-05
4.38646e-05
4.31354e-05
4.24084e-05
4.16659e-05
4.0889e-05
4.00568e-05
3.9149e-05
3.81422e-05
3.70114e-05
3.57314e-05
3.42763e-05
3.26228e-05
3.07738e-05
2.87599e-05
2.66244e-05
2.43995e-05
2.21087e-05
1.9776e-05
1.74292e-05
1.5096e-05
1.28034e-05
1.05839e-05
8.46638e-06
6.50216e-06
4.91433e-06
4.18224e-06
4.92562e-06
6.94278e-06
4.88395e-05
4.9689e-05
5.06331e-05
5.16159e-05
5.26266e-05
5.36804e-05
5.47372e-05
5.57792e-05
5.67999e-05
5.77859e-05
5.87221e-05
5.96044e-05
6.04251e-05
6.11746e-05
6.18442e-05
6.24226e-05
6.28964e-05
6.32505e-05
6.34705e-05
6.35378e-05
6.34506e-05
6.31761e-05
6.26814e-05
6.19863e-05
6.10749e-05
5.99038e-05
5.84554e-05
5.67472e-05
5.48124e-05
5.26963e-05
5.04509e-05
4.81288e-05
4.57671e-05
4.34131e-05
4.10577e-05
3.87131e-05
3.632e-05
3.32945e-05
3.04741e-05
4.80081e-05
4.71983e-05
4.63719e-05
4.54983e-05
4.46091e-05
4.3712e-05
4.28318e-05
4.20018e-05
4.12242e-05
4.04932e-05
3.98042e-05
3.91485e-05
3.85126e-05
3.78811e-05
3.72403e-05
3.65727e-05
3.58602e-05
3.50851e-05
3.42264e-05
3.32618e-05
3.21682e-05
3.09195e-05
2.94928e-05
2.78873e-05
2.61264e-05
2.42478e-05
2.22762e-05
2.02305e-05
1.81297e-05
1.59964e-05
1.38543e-05
1.17252e-05
9.63661e-06
7.61057e-06
5.68872e-06
4.06679e-06
3.29119e-06
4.09481e-06
6.0162e-06
4.3583e-05
4.43488e-05
4.51997e-05
4.60883e-05
4.70044e-05
4.79606e-05
4.89235e-05
4.9875e-05
5.08115e-05
5.17194e-05
5.25876e-05
5.34115e-05
5.41854e-05
5.49006e-05
5.55521e-05
5.61282e-05
5.66203e-05
5.7015e-05
5.72985e-05
5.74539e-05
5.74797e-05
5.73481e-05
5.70284e-05
5.6533e-05
5.58498e-05
5.49408e-05
5.3787e-05
5.23968e-05
5.07926e-05
4.9006e-05
4.70759e-05
4.50433e-05
4.29403e-05
4.0803e-05
3.86228e-05
3.6401e-05
3.40848e-05
3.11903e-05
2.83352e-05
4.28379e-05
4.21127e-05
4.13719e-05
4.05911e-05
3.97985e-05
3.89993e-05
3.82165e-05
3.74792e-05
3.67896e-05
3.6142e-05
3.55332e-05
3.49565e-05
3.43992e-05
3.38474e-05
3.32906e-05
3.27133e-05
3.21001e-05
3.14357e-05
3.07009e-05
2.98753e-05
2.8938e-05
2.78645e-05
2.66323e-05
2.52381e-05
2.37001e-05
2.20478e-05
2.03029e-05
1.84785e-05
1.65901e-05
1.46553e-05
1.26936e-05
1.07224e-05
8.76375e-06
6.83345e-06
4.96023e-06
3.30169e-06
2.46481e-06
3.36264e-06
5.21999e-06
3.89199e-05
3.96094e-05
4.03767e-05
4.11789e-05
4.20084e-05
4.28761e-05
4.37512e-05
4.46188e-05
4.5476e-05
4.63097e-05
4.71109e-05
4.78762e-05
4.86005e-05
4.92772e-05
4.99021e-05
5.0467e-05
5.09629e-05
5.13786e-05
5.17027e-05
5.19209e-05
5.20302e-05
5.20079e-05
5.18263e-05
5.14908e-05
5.0992e-05
5.02981e-05
4.93899e-05
4.82685e-05
4.69479e-05
4.54491e-05
4.37993e-05
4.20302e-05
4.01652e-05
3.8233e-05
3.62243e-05
3.41337e-05
3.19085e-05
2.91537e-05
2.63322e-05
3.82519e-05
3.76021e-05
3.69384e-05
3.62405e-05
3.5533e-05
3.48204e-05
3.41234e-05
3.34671e-05
3.28538e-05
3.22782e-05
3.17389e-05
3.12281e-05
3.07365e-05
3.02532e-05
2.97672e-05
2.92655e-05
2.87349e-05
2.81623e-05
2.75308e-05
2.6822e-05
2.60168e-05
2.5093e-05
2.40277e-05
2.28156e-05
2.14722e-05
2.00204e-05
1.84778e-05
1.68536e-05
1.51593e-05
1.3409e-05
1.16178e-05
9.7999e-06
7.97139e-06
6.14281e-06
4.32877e-06
2.63643e-06
1.70439e-06
2.74116e-06
4.54812e-06
3.47775e-05
3.53984e-05
3.60894e-05
3.68135e-05
3.75637e-05
3.83499e-05
3.91444e-05
3.99341e-05
4.07169e-05
4.14802e-05
4.22173e-05
4.2925e-05
4.35991e-05
4.4235e-05
4.48285e-05
4.53733e-05
4.58618e-05
4.62849e-05
4.66334e-05
4.68945e-05
4.70635e-05
4.71229e-05
4.70468e-05
4.68372e-05
4.64862e-05
4.59675e-05
4.52615e-05
4.43659e-05
4.32868e-05
4.20368e-05
4.06342e-05
3.91013e-05
3.74558e-05
3.57158e-05
3.3874e-05
3.19166e-05
2.9799e-05
2.71962e-05
2.4455e-05
3.41786e-05
3.35969e-05
3.30019e-05
3.2378e-05
3.17464e-05
3.11106e-05
3.04892e-05
2.99044e-05
2.93577e-05
2.88448e-05
2.83647e-05
2.79116e-05
2.74765e-05
2.70502e-05
2.66236e-05
2.61857e-05
2.57252e-05
2.52299e-05
2.46849e-05
2.4075e-05
2.3382e-05
2.2585e-05
2.16629e-05
2.06091e-05
1.94351e-05
1.81605e-05
1.6798e-05
1.53543e-05
1.38377e-05
1.22591e-05
1.06296e-05
8.96008e-06
7.26284e-06
5.54397e-06
3.80578e-06
2.09802e-06
1.0124e-06
2.24741e-06
3.99562e-06
3.10934e-05
3.16522e-05
3.2274e-05
3.29274e-05
3.36055e-05
3.4317e-05
3.50376e-05
3.57556e-05
3.64687e-05
3.71665e-05
3.78425e-05
3.84945e-05
3.9119e-05
3.97122e-05
4.02709e-05
4.07905e-05
4.12645e-05
4.16856e-05
4.20453e-05
4.23321e-05
4.25411e-05
4.26595e-05
4.26639e-05
4.25515e-05
4.23174e-05
4.19387e-05
4.13982e-05
4.06897e-05
3.98144e-05
3.87783e-05
3.7592e-05