/*--------------------------------*- C++ -*----------------------------------*\
| =========                 |                                                 |
| \\      /  F ield         | OpenFOAM: The Open Source CFD Toolbox           |
|  \\    /   O peration     | Version:  2312                                  |
|   \\  /    A nd           | Website:  www.openfoam.com                      |
|    \\/     M anipulation  |                                                 |
\*---------------------------------------------------------------------------*/
FoamFile
{
    version     2.0;
    format      ascii;
    arch        "LSB;label=32;scalar=64";
    class       volVectorField;
    location    "300";
    object      momentError;
}
// * * * * * * * * * * * * * * * * * * * * * * * * * * * * * * * * * * * * * //

dimensions      [0 1 -2 0 0 0 0];

internalField   nonuniform List<vector> 
10720
(
(-0.00479293 0.0198547 -4.16808e-15)
(-0.00333295 0.0190988 -2.46702e-15)
(-0.000318412 0.0136872 -2.159e-14)
(0.000784421 0.0133792 9.99606e-14)
(0.00158452 0.0118642 7.47644e-14)
(0.00212681 0.0104339 -1.85203e-13)
(0.00253365 0.00900578 -1.39605e-13)
(0.00265658 0.00747749 -1.07635e-13)
(0.00257031 0.00611834 2.15562e-14)
(0.00235619 0.00483361 5.47729e-15)
(0.0020741 0.00401361 -1.55947e-14)
(0.00119026 0.00234046 6.73868e-14)
(0.000574157 0.00133837 -2.19399e-13)
(0.000102013 0.000546963 -4.01295e-13)
(-0.000400925 -0.000136728 7.43392e-14)
(-0.000865439 -0.000698951 -1.061e-13)
(-0.00134492 -0.00111471 1.15558e-13)
(-0.00174044 -0.00135927 8.86656e-13)
(-0.00213345 -0.00141314 2.3472e-13)
(-0.00220613 -0.00127717 -4.66668e-13)
(-0.00178902 -0.00119773 -2.31273e-13)
(-0.00207802 -0.00103668 9.59121e-14)
(-0.010474 -0.00178534 3.38025e-13)
(-0.0123478 -0.00294985 -2.47184e-13)
(0.00825503 -9.48954e-05 4.58947e-14)
(0.01754 0.00368237 -4.01733e-14)
(0.00633555 0.00401242 -6.94601e-14)
(-0.00193771 0.00202991 1.31304e-14)
(-0.00337561 0.00010635 1.00901e-14)
(-0.00404269 -0.00066959 2.09902e-13)
(-0.00245257 -0.000501633 1.55012e-13)
(-0.000420819 -0.000198694 -1.77294e-13)
(0.000785391 -0.000103746 -1.3341e-13)
(0.000756692 -6.64237e-05 -2.39317e-13)
(0.000498385 6.13817e-05 -1.5971e-13)
(0.000178442 0.00121538 1.54565e-13)
(0.00190668 0.0113897 -1.08638e-14)
(0.054119 0.0718604 -5.89e-16)
(1.09261 -0.120697 -6.35181e-14)
(-0.00546927 0.0185765 8.10138e-15)
(-0.00576768 0.0152211 -1.99991e-14)
(-0.00563026 0.0115017 2.29116e-14)
(-0.00481923 0.0081755 1.04266e-13)
(-0.00391763 0.00549772 3.60534e-14)
(-0.00296249 0.00315058 -2.84847e-13)
(-0.00125863 0.000970728 -1.5589e-13)
(-0.000144717 4.22397e-06 1.61112e-13)
(-0.000461384 0.000481069 -6.37303e-14)
(-0.00134886 0.00126821 5.91438e-14)
(-0.00151517 0.00104926 -8.07693e-14)
(-0.00127513 0.000733606 -1.38047e-13)
(-0.00113429 0.000590923 3.60498e-14)
(-0.00105919 0.000498202 7.11314e-14)
(-0.000951134 0.00040293 -1.1741e-13)
(-0.000828101 0.000327437 -1.0147e-13)
(-0.00072619 0.000272116 -7.24092e-14)
(-0.000641921 0.000229427 -8.85998e-14)
(-0.000568393 0.000193127 -3.26439e-14)
(-0.00050193 0.000162664 -2.83542e-15)
(-0.000443593 0.000135993 3.106e-14)
(-0.000391773 0.00011365 6.2695e-14)
(-0.000346638 9.34135e-05 -2.99261e-14)
(-0.000304269 7.63112e-05 -2.12927e-14)
(-0.000261654 5.93611e-05 2.58302e-14)
(-0.000219085 5.08406e-05 -4.02156e-15)
(-0.000184808 4.22456e-05 -9.92913e-16)
(-0.000163866 1.78328e-05 -2.05446e-15)
(-0.000147006 -2.37303e-06 4.72543e-16)
(-0.000130431 -8.10523e-06 1.08759e-16)
(-9.82274e-05 -8.13428e-06 4.95027e-16)
(-7.49893e-05 -8.85437e-06 -1.32784e-15)
(-8.22846e-05 -1.17698e-05 -2.52089e-15)
(-2.5897e-05 -8.74438e-06 -4.04502e-15)
(4.88569e-05 1.06713e-06 -5.3359e-15)
(2.14158e-05 -5.19079e-06 -2.36639e-15)
(6.30796e-05 -2.33623e-05 1.28165e-14)
(0.000258372 -0.000187168 -3.38534e-15)
(0.00179348 -0.00156242 -5.83615e-14)
(0.00100592 0.0145707 -3.8773e-15)
(0.00240148 0.0140581 2.20184e-15)
(0.00352749 0.0104448 -1.58239e-17)
(0.00477291 0.0102944 -7.56274e-15)
(0.00555556 0.00936909 1.00022e-14)
(0.00605653 0.00843601 6.72265e-14)
(0.00653711 0.00740156 8.02984e-14)
(0.00672149 0.00633745 2.64657e-14)
(0.0066424 0.0053185 -8.61733e-14)
(0.00649538 0.00443905 -4.19044e-14)
(0.00609101 0.00348018 -2.56396e-13)
(0.00602919 0.00384062 -4.7224e-13)
(0.00585149 0.00374567 -2.36427e-14)
(0.00570497 0.00333325 -2.07082e-14)
(0.00513792 0.00310865 -8.27921e-14)
(0.00465641 0.00282525 8.65263e-14)
(0.00409082 0.00260057 3.88991e-13)
(0.00366807 0.00228936 -6.87403e-13)
(0.00334687 0.00179198 -5.72286e-13)
(0.00852746 -0.000148088 -3.58411e-13)
(-0.000536061 0.0022002 2.15262e-13)
(-0.00774623 0.000933765 2.96459e-13)
(0.00838243 -0.00203111 -3.85858e-13)
(0.0641513 0.00652094 5.93699e-14)
(0.0550351 0.0127759 -2.10283e-15)
(-0.0165002 0.00633858 -1.16475e-14)
(-0.0462768 -0.000462523 -4.08235e-15)
(-0.0134091 -0.000754762 1.23264e-14)
(0.00574709 -0.000327745 -2.74891e-14)
(-0.00283753 -0.00128299 -1.02076e-14)
(-0.00432592 -0.0012364 9.34869e-15)
(-0.00156174 -0.000489427 -5.55505e-15)
(2.79093e-05 -7.68501e-05 -1.14731e-13)
(0.000916585 -4.46881e-05 -7.19314e-14)
(0.000801695 -3.00956e-05 1.60286e-13)
(0.000486549 0.000211603 2.84519e-14)
(0.000299274 0.00194906 6.3543e-14)
(-0.0301643 0.0137908 -1.17608e-14)
(-0.890662 0.107858 -3.25982e-14)
(7.62134e-05 0.0137424 -1.63895e-14)
(-0.00100015 0.0115144 1.50167e-13)
(-0.00180946 0.00898697 -4.71363e-14)
(-0.00213103 0.00694045 -1.15825e-13)
(-0.00224362 0.00502372 8.28658e-14)
(-0.00206827 0.00317156 6.68953e-14)
(-0.00133134 0.00159587 2.93363e-14)
(-0.000807719 0.000895762 1.5406e-13)
(-0.000960325 0.00100833 -3.18829e-15)
(-0.001403 0.00119426 -4.39471e-14)
(-0.00157953 0.000896157 7.30037e-14)
(-0.00149041 0.000626543 -9.49587e-14)
(-0.00137168 0.000474538 1.99508e-14)
(-0.0012717 0.000347869 1.04101e-14)
(-0.00115222 0.00023734 2.46945e-14)
(-0.00101861 0.00016654 2.7702e-14)
(-0.000900323 0.00012191 4.69722e-14)
(-0.000799957 9.16783e-05 -1.40555e-14)
(-0.000712642 6.75929e-05 3.03533e-15)
(-0.000634487 4.91594e-05 -7.02033e-15)
(-0.000565473 3.35127e-05 1.82746e-14)
(-0.000504178 2.10562e-05 5.30205e-14)
(-0.00044951 9.73055e-06 -8.852e-16)
(-0.000397684 -2.45479e-06 -1.76553e-14)
(-0.000347079 -1.65604e-05 -1.49747e-14)
(-0.000298415 -2.82996e-05 2.14213e-14)
(-0.000253889 -3.3084e-05 6.15964e-15)
(-0.000219454 -3.37283e-05 -1.60955e-15)
(-0.000193403 -3.04556e-05 4.65853e-17)
(-0.000162731 -2.59477e-05 -1.06278e-16)
(-0.000140205 -2.0998e-05 -1.9974e-16)
(-0.000125858 -1.75601e-05 -4.26563e-16)
(-0.000105648 -1.85235e-05 2.1713e-15)
(-7.93454e-05 -1.41107e-05 2.40047e-15)
(-4.33481e-05 -2.07901e-06 2.74671e-15)
(-8.87779e-05 -3.74215e-06 -7.42376e-15)
(-7.60308e-05 -1.48175e-05 7.83557e-16)
(0.000103139 -1.83937e-05 1.33871e-14)
(0.0013279 0.000153797 1.58037e-14)
(-0.00105016 0.0117837 2.10326e-15)
(-0.000249855 0.0113165 -1.44503e-15)
(0.000756915 0.00870971 -2.63415e-15)
(0.00153075 0.00886576 1.37308e-15)
(0.00203419 0.0083434 5.77718e-14)
(0.00247168 0.00768386 -6.42956e-14)
(0.00288399 0.00701569 -8.8218e-14)
(0.00311476 0.00627205 1.60676e-13)
(0.00319975 0.00548914 6.56309e-14)
(0.00320288 0.00475968 8.88526e-14)
(0.00309842 0.0040834 2.04994e-14)
(0.00292287 0.00338696 -7.72684e-16)
(0.00274164 0.00270476 3.55702e-13)
(0.00249226 0.00216858 1.20216e-14)
(0.00252959 0.00162078 2.16454e-13)
(0.00267305 0.00117303 1.21362e-15)
(0.00280072 0.000928225 -6.83904e-13)
(0.00277486 0.000985356 4.11955e-13)
(0.00228651 0.00226955 9.19938e-13)
(-0.00163061 0.0045998 1.65791e-13)
(0.00574649 -0.00185849 -2.66078e-14)
(0.00425391 -0.00253052 -6.80313e-14)
(0.00458903 -0.00346425 1.65025e-13)
(-0.0133886 -0.00818284 1.19046e-13)
(-0.0466636 -0.00974143 -9.77539e-14)
(-0.0656357 -0.0107393 -2.18982e-14)
(-0.00805594 -0.000365051 -5.62708e-14)
(0.0154396 0.00247215 3.08556e-14)
(-0.00215276 0.000290928 -2.82683e-14)
(0.0042634 -0.00217936 -1.56259e-13)
(0.00770217 -0.00155612 -7.79845e-15)
(0.00293805 -0.000281823 2.37326e-13)
(-0.00070561 0.000292862 3.59814e-14)
(-0.000217754 0.000319001 1.1221e-13)
(0.000184942 0.00012499 1.33266e-13)
(0.000370046 5.04904e-05 2.20525e-14)
(-0.000679902 0.000827819 -8.48676e-14)
(-0.0138459 0.00138797 8.498e-15)
(-0.110471 0.00872546 1.56827e-14)
(-0.00161881 0.0111852 2.43062e-14)
(-0.00195938 0.00948521 -3.70343e-14)
(-0.00215457 0.00742362 -4.64922e-14)
(-0.00221379 0.00591677 -1.31075e-14)
(-0.00208769 0.00446012 1.12905e-14)
(-0.00180042 0.00304858 -1.20784e-13)
(-0.00132466 0.00179586 2.34473e-14)
(-0.00109575 0.00133594 -1.49182e-13)
(-0.00128515 0.00136393 -1.24947e-13)
(-0.00152996 0.00132496 -1.15761e-13)
(-0.00161338 0.00110764 1.18273e-13)
(-0.00153477 0.000899558 1.03752e-13)
(-0.00140795 0.000738622 -6.46459e-14)
(-0.00128321 0.000595294 -1.48458e-13)
(-0.00115339 0.000472537 4.05281e-14)
(-0.00101749 0.000380967 6.98215e-14)
(-0.000893556 0.000313102 -1.89677e-14)
(-0.000787876 0.000259445 -9.26496e-14)
(-0.000697052 0.000214703 -2.68398e-14)
(-0.000617167 0.000177553 2.52923e-15)
(-0.000547434 0.000145822 -2.07066e-14)
(-0.000486083 0.000118789 -4.14011e-14)
(-0.000430991 9.41237e-05 9.13087e-15)
(-0.000378475 7.07146e-05 -6.39662e-16)
(-0.000327405 4.86942e-05 2.87823e-15)
(-0.000278844 3.17434e-05 -9.6948e-15)
(-0.000234639 2.17786e-05 -1.78662e-14)
(-0.000198759 1.42828e-05 3.97718e-15)
(-0.000170549 6.38185e-06 7.54244e-16)
(-0.000142921 -1.07758e-06 -1.69924e-16)
(-0.000115192 -8.60836e-06 1.19315e-16)
(-9.69008e-05 -1.19596e-05 4.66334e-16)
(-9.22984e-05 -1.62898e-05 -7.52869e-16)
(-5.89102e-05 -2.30049e-05 -1.42608e-15)
(-3.26953e-05 -1.14326e-05 6.41835e-16)
(-0.000133855 4.39635e-05 -1.1596e-15)
(-3.60555e-05 5.40589e-05 8.75369e-15)
(0.000194934 -4.02082e-06 8.1274e-15)
(0.00100473 0.000157891 -8.32027e-14)
(3.65851e-05 0.00948292 1.05165e-14)
(0.000775658 0.00907569 2.78678e-15)
(0.00147167 0.0072199 1.07791e-15)
(0.00220219 0.00735813 -6.52109e-15)
(0.00267903 0.00689246 1.03815e-15)
(0.00311013 0.00633363 -1.45284e-14)
(0.00353597 0.00577813 1.04223e-13)
(0.00378638 0.00513647 3.08758e-14)
(0.00391448 0.00445895 -2.52761e-13)
(0.00396629 0.00381651 8.51154e-14)
(0.00390166 0.00319584 2.72147e-13)
(0.00375891 0.00261556 3.41646e-13)
(0.00353436 0.0021438 7.88008e-14)
(0.00326964 0.0017844 -3.85301e-13)
(0.00307094 0.00143266 -9.78989e-14)
(0.00263514 0.00135218 -9.90465e-14)
(0.00235726 0.00120493 -1.79052e-13)
(0.00214222 0.000995476 -3.62146e-13)
(0.00204668 0.000656499 -6.29181e-13)
(0.001329 -0.00159728 1.59064e-13)
(0.00280267 0.00169782 -1.26926e-13)
(0.00478396 0.00186565 -1.78376e-13)
(0.00261997 -0.000320519 2.34676e-15)
(0.00260096 0.00148654 -2.52355e-13)
(0.00453071 -0.00128913 -4.64137e-14)
(-0.0247383 0.0126851 4.40501e-14)
(-0.0378441 0.00878419 5.28183e-14)
(-0.0590944 0.00419236 -2.40889e-14)
(0.0273177 -0.00203463 3.35088e-14)
(0.0255439 0.00266032 6.48172e-14)
(0.0395645 -0.00289312 -5.63504e-14)
(0.00453493 0.00121258 1.21521e-14)
(-0.00292509 0.000648436 1.77475e-13)
(-0.00292885 0.000861886 8.07455e-14)
(-0.000825338 0.000381325 -3.26367e-14)
(0.000687381 -2.50762e-05 -1.08675e-13)
(0.000983871 8.3287e-05 -2.72196e-14)
(-0.00362023 -0.000982456 -1.97184e-14)
(-0.0303234 0.00801553 5.50512e-14)
(-0.000562391 0.00901527 -1.73901e-15)
(-0.0010361 0.00781469 -3.89751e-14)
(-0.00139547 0.00625504 -3.4565e-14)
(-0.00161917 0.00514086 -2.81536e-14)
(-0.00166623 0.00399704 1.13935e-13)
(-0.00153183 0.00286033 2.05752e-13)
(-0.00124437 0.00187278 1.17402e-14)
(-0.00117615 0.00157591 1.4146e-13)
(-0.00143358 0.00160716 5.52761e-16)
(-0.00157344 0.00145425 -3.11005e-14)
(-0.00161912 0.00121617 -9.01252e-14)
(-0.00156575 0.000982098 -2.98069e-14)
(-0.00145673 0.00078033 -1.54095e-14)
(-0.00133463 0.000608217 7.44063e-14)
(-0.00120779 0.000464781 -3.90141e-14)
(-0.00107576 0.000352531 -1.32305e-13)
(-0.000951905 0.000268516 -1.68066e-14)
(-0.000842329 0.00020486 8.63661e-14)
(-0.000746665 0.000155427 -2.61239e-15)
(-0.000661853 0.000117011 -2.43543e-14)
(-0.000587317 8.66631e-05 -6.56512e-14)
(-0.000521018 6.24455e-05 2.68038e-14)
(-0.000460573 4.17674e-05 3.5223e-14)
(-0.000402717 2.31521e-05 -6.07169e-15)
(-0.000347259 5.97406e-06 -2.76342e-15)
(-0.000295733 -7.44805e-06 6.02576e-15)
(-0.000249124 -1.53739e-05 8.66546e-15)
(-0.000210382 -2.03242e-05 -2.03205e-15)
(-0.000178653 -2.36301e-05 -7.4736e-16)
(-0.000147933 -2.63722e-05 1.84644e-16)
(-0.000116776 -2.61582e-05 -9.99897e-17)
(-9.53451e-05 -2.10921e-05 -1.62552e-16)
(-8.02242e-05 1.02258e-05 6.63125e-17)
(4.7021e-05 0.000334964 -2.65374e-16)
(0.000623831 0.00200553 -2.0421e-15)
(0.000865801 0.00292477 1.47385e-14)
(-0.000351707 -0.00164303 -2.21292e-14)
(8.17041e-05 -0.000273285 -5.55025e-14)
(0.000917245 0.000198538 -3.03467e-14)
(-0.00019503 0.00794631 -8.92491e-15)
(0.000340182 0.00760856 4.79739e-15)
(0.000866026 0.00623478 4.19975e-15)
(0.00142991 0.00642688 -1.74134e-14)
(0.00179653 0.00609786 -1.48645e-14)
(0.00214023 0.00568449 3.52544e-14)
(0.00249621 0.00531556 -1.29224e-14)
(0.00270884 0.0048449 1.36858e-14)
(0.00284307 0.00433278 -9.40836e-14)
(0.00291688 0.00384052 -2.87336e-13)
(0.0028929 0.00334718 -1.03083e-14)
(0.00280569 0.00287762 -1.25297e-13)
(0.00266286 0.00245408 -8.11921e-14)
(0.00249753 0.00206977 -1.43797e-14)
(0.00231063 0.00173215 -3.30151e-13)
(0.0021823 0.00134133 2.99813e-13)
(0.00211651 0.00100681 1.71967e-13)
(0.00203594 0.000785564 -3.86756e-13)
(0.00194697 0.000621061 1.2223e-13)
(0.00180931 0.000474561 -2.00995e-13)
(0.00204926 0.000415885 -1.39537e-13)
(0.0016264 3.73187e-05 2.51217e-13)
(0.00084288 -0.000713266 6.08716e-15)
(0.00312103 -0.000160706 2.21531e-13)
(0.00730613 0.00213906 1.01123e-13)
(0.0494728 -0.00269582 -2.04916e-14)
(0.0278401 -0.00389204 6.24772e-15)
(0.0288739 -0.00930089 2.47331e-14)
(-0.0164668 -0.00750382 -3.01272e-14)
(-0.011624 0.00218963 -5.40548e-14)
(0.0147074 0.00615331 2.18258e-14)
(0.00154531 -0.000308414 -5.27678e-14)
(0.000434227 0.00105169 -4.00095e-14)
(-0.00695625 0.00086978 -1.49127e-13)
(-0.00408666 0.000428037 -2.39486e-13)
(-0.000434891 -0.00012953 4.13558e-14)
(0.00193813 -0.000299351 -1.05327e-14)
(-0.000251304 -0.00156433 -9.33623e-15)
(-0.0165878 0.00828984 -1.94178e-14)
(-0.000629857 0.00755366 2.00405e-14)
(-0.000948178 0.00662015 3.82076e-14)
(-0.00119191 0.00535762 -5.0494e-14)
(-0.0013679 0.00448343 -1.94848e-14)
(-0.0014246 0.00356697 7.47463e-14)
(-0.00134025 0.00265384 -1.50774e-13)
(-0.00122092 0.00199916 -9.96643e-14)
(-0.00126277 0.0017767 2.05248e-13)
(-0.00146847 0.00170904 1.92422e-13)
(-0.00157229 0.00152339 -8.43052e-15)
(-0.00159808 0.00129428 -5.58784e-14)
(-0.00155344 0.00106785 -3.47669e-14)
(-0.00145588 0.000865789 1.17142e-13)
(-0.00133869 0.000693825 -5.81244e-14)
(-0.00121587 0.000550723 -1.30495e-14)
(-0.00108738 0.000434767 9.83333e-14)
(-0.000965379 0.000345281 -4.44085e-14)
(-0.000854505 0.000276303 4.07456e-14)
(-0.000756732 0.000221891 2.43709e-14)
(-0.000669642 0.000178203 4.24741e-15)
(-0.000592918 0.000142502 6.83563e-14)
(-0.000524588 0.000112795 -2.56306e-14)
(-0.00046213 8.66397e-05 -4.77362e-14)
(-0.0004024 6.28808e-05 -7.62343e-15)
(-0.000345777 4.16641e-05 1.9087e-14)
(-0.000293875 2.50726e-05 6.49879e-16)
(-0.00024712 1.41767e-05 9.25874e-15)
(-0.000208081 7.0857e-06 -1.73675e-15)
(-0.000175985 1.51228e-06 1.12658e-16)
(-0.000145055 -3.35561e-06 -2.76981e-16)
(-0.000112915 -4.15357e-06 -5.08676e-16)
(-9.01564e-05 -6.09213e-06 4.00468e-17)
(-8.28015e-05 -5.81925e-05 4.11838e-17)
(-5.96202e-05 -0.000557715 4.9056e-16)
(-0.000158786 -0.00294516 -1.39939e-15)
(-0.000323093 -0.00389604 5.34338e-15)
(-0.000117086 0.0022567 1.75896e-15)
(0.000123662 0.000247985 -1.14631e-14)
(0.000738685 1.69642e-05 4.31298e-14)
(-1.45274e-05 0.00669963 2.18058e-15)
(0.000450401 0.00641187 -4.30781e-16)
(0.00087468 0.00537829 2.42906e-15)
(0.001376 0.00555337 -3.35417e-15)
(0.00170464 0.0052804 1.1302e-14)
(0.0020173 0.00493656 -1.4885e-15)
(0.00235305 0.00463662 -4.20439e-14)
(0.00256524 0.00423505 7.85605e-14)
(0.00271505 0.00379496 1.69779e-13)
(0.00281658 0.00336248 -1.05817e-13)
(0.00282776 0.00291866 -1.08108e-13)
(0.00278204 0.00248571 6.48744e-14)
(0.00268865 0.00208376 -1.49827e-13)
(0.00255112 0.00171855 -2.85164e-14)
(0.00239386 0.00138891 -4.6133e-14)
(0.00223683 0.00107982 1.98237e-14)
(0.00203976 0.000931472 4.02828e-14)
(0.00193499 0.00079105 4.47036e-13)
(0.00185957 0.000650281 3.53084e-13)
(0.00181627 0.000456163 -1.57638e-13)
(0.00183531 0.000185389 2.26043e-13)
(0.00173504 -0.00047277 1.87451e-14)
(0.000894543 -0.00160775 -5.70809e-14)
(-0.000295544 -0.00140222 -1.18273e-13)
(-0.00014994 0.00111069 9.30157e-15)
(0.00172478 0.00286233 3.23204e-14)
(0.00869857 8.07649e-05 4.00239e-14)
(0.00269487 -0.00339726 -3.78665e-14)
(-0.00855764 -0.00371494 9.842e-15)
(0.0160839 -0.00480693 7.59963e-14)
(-0.0226102 0.00333357 -2.97451e-14)
(0.00599169 0.00104565 -1.67252e-13)
(0.00203664 0.00109027 -8.94011e-14)
(-0.000389477 0.000232923 -6.14351e-14)
(-0.00328276 -8.78163e-05 6.3509e-14)
(-0.000936937 -0.000841562 5.72818e-14)
(0.0020974 -0.000360074 5.81286e-14)
(0.000576873 -0.00160103 6.38963e-14)
(-0.0132717 0.00878225 -1.02463e-15)
(-0.000402713 0.00637807 -9.1382e-15)
(-0.000702265 0.00565271 -1.05321e-14)
(-0.000941263 0.00463602 2.56596e-15)
(-0.00112185 0.00393631 3.37415e-14)
(-0.00119748 0.00319466 2.23317e-14)
(-0.00116647 0.00244748 -1.9415e-13)
(-0.00115977 0.00201615 -1.16759e-13)
(-0.00127345 0.00186509 -1.84548e-13)
(-0.0014418 0.0017535 2.24202e-14)
(-0.00152675 0.00155666 2.06519e-14)
(-0.00154746 0.00133458 -5.19111e-14)
(-0.00151329 0.00111585 4.96219e-15)
(-0.00143165 0.000913876 -2.45841e-14)
(-0.00132762 0.00073795 -4.58492e-14)
(-0.00121507 0.000589093 -1.42149e-13)
(-0.00109553 0.00046497 -1.19717e-14)
(-0.000979615 0.000365748 8.63236e-14)
(-0.000871804 0.000287402 -1.33717e-14)
(-0.00077479 0.000225076 1.66983e-14)
(-0.000687433 0.000175035 -3.05273e-14)
(-0.000609559 0.000134598 -4.6866e-14)
(-0.00053948 0.000101468 -4.23195e-15)
(-0.000474804 7.34133e-05 1.76786e-14)
(-0.000412834 4.90821e-05 1.90841e-14)
(-0.000354263 2.81494e-05 -5.84724e-16)
(-0.000301115 1.18007e-05 -1.00601e-14)
(-0.000253377 1.00541e-06 -1.69562e-14)
(-0.00021324 -5.98818e-06 3.28318e-15)
(-0.00017998 -1.13455e-05 -1.93359e-16)
(-0.000148247 -1.6135e-05 3.04916e-16)
(-0.000115972 -1.8818e-05 4.84379e-16)
(-9.31471e-05 -1.57942e-05 -4.01303e-17)
(-9.24931e-05 -1.72485e-06 2.02558e-16)
(-0.000110597 0.00013494 -9.98105e-16)
(-0.000307108 0.000911546 3.25305e-16)
(-0.000491712 0.000962707 -1.44506e-14)
(0.000338887 -0.000823715 2.26704e-14)
(0.000239393 -2.23853e-05 5.79122e-14)
(0.00102257 -0.000363299 -2.15362e-14)
(-4.78304e-06 0.00574046 9.79382e-16)
(0.000374437 0.0055002 -2.7522e-16)
(0.000717229 0.00471143 6.50441e-16)
(0.00113758 0.0048839 3.38199e-15)
(0.00141423 0.00466816 -9.03e-15)
(0.00168227 0.00439406 -1.90974e-14)
(0.0019737 0.00417335 4.55404e-14)
(0.00216213 0.00385531 -8.91434e-15)
(0.00230196 0.00350294 5.05106e-14)
(0.00240446 0.00315614 1.03044e-13)
(0.00242835 0.00278883 2.22779e-14)
(0.00240421 0.00242479 3.44871e-14)
(0.00233828 0.00208108 2.16572e-13)
(0.00222888 0.00175932 3.67257e-13)
(0.00210074 0.00146368 3.32889e-13)
(0.00195425 0.00120415 -5.40207e-15)
(0.00181853 0.000951756 4.05425e-13)
(0.00175988 0.000747923 2.67982e-14)
(0.00171976 0.000581126 -1.19176e-13)
(0.0016791 0.000401193 1.57442e-13)
(0.00166861 0.000191197 -2.60874e-13)
(0.00161286 -0.00027912 1.10147e-13)
(0.000863338 -0.00109168 1.1051e-13)
(-0.000476763 -0.00103493 4.48905e-14)
(-0.000702105 0.00063817 1.20497e-13)
(0.00110253 0.00194771 -4.95026e-14)
(0.00230878 0.00109932 -4.27955e-14)
(0.00230243 -0.00131662 6.31855e-15)
(-0.000307662 -0.00254787 2.63878e-14)
(-0.00466109 -0.00108312 -7.03129e-14)
(-0.00290525 0.000499789 -6.87184e-14)
(0.00108858 0.000846212 1.40206e-13)
(0.00339274 0.000728198 3.15605e-14)
(0.00354444 -1.78426e-05 -6.03528e-14)
(0.00219828 -0.000792941 -4.97128e-16)
(0.0220766 -0.00799495 -1.43336e-13)
(-0.00577541 0.0022674 -5.09425e-14)
(0.000496227 -0.00205667 -1.97454e-14)
(-0.0100152 0.00786384 -3.189e-14)
(-0.000323845 0.00546808 -6.63866e-15)
(-0.000575083 0.00488466 -1.26889e-14)
(-0.000780579 0.00404946 6.03959e-15)
(-0.000944074 0.00347803 8.31862e-14)
(-0.00102158 0.00286424 3.54652e-14)
(-0.00102057 0.00223673 6.93801e-16)
(-0.00106854 0.00195153 1.82787e-13)
(-0.0012369 0.0018779 -8.38761e-14)
(-0.00137972 0.00174399 -1.35018e-13)
(-0.00145667 0.0015511 4.91506e-14)
(-0.00147968 0.00134361 9.80696e-14)
(-0.00145503 0.00113886 -2.41942e-14)
(-0.00138803 0.000946021 6.85742e-14)
(-0.00129862 0.000775231 9.31325e-15)
(-0.00119783 0.000628728 3.5315e-14)
(-0.00108793 0.000504088 1.24858e-14)
(-0.000979533 0.000402282 -3.93507e-14)
(-0.000876276 0.000320393 3.24399e-14)
(-0.000781243 0.000254656 -2.44848e-14)
(-0.000694489 0.000201451 4.5039e-15)
(-0.0006164 0.000158291 6.51192e-14)
(-0.000545295 0.00012264 -2.25317e-14)
(-0.000479268 9.23656e-05 -3.04338e-14)
(-0.000416001 6.60778e-05 6.58208e-15)
(-0.000356612 4.3728e-05 -1.63425e-15)
(-0.000303056 2.62184e-05 2.9889e-15)
(-0.00025508 1.41323e-05 8.57142e-15)
(-0.000214509 6.14746e-06 -1.47254e-15)
(-0.000180721 -1.29302e-07 -1.41133e-16)
(-0.000148715 -5.70953e-06 1.95265e-16)
(-0.000116549 -7.98971e-06 1.44336e-15)
(-9.28497e-05 -8.30469e-06 1.80556e-16)
(-8.59574e-05 -1.09344e-05 -9.91607e-16)
(-5.4223e-05 -2.03003e-05 -1.77391e-16)
(1.0115e-05 -4.26336e-05 -4.28262e-16)
(4.0516e-05 8.53124e-05 4.32704e-15)
(2.58773e-05 0.000128824 -8.98745e-15)
(9.36891e-05 -2.61527e-06 -1.42603e-14)
(0.000473458 0.000328594 -5.28202e-14)
(4.15262e-05 0.00495888 2.71719e-15)
(0.000365288 0.00475255 -3.04973e-15)
(0.000653228 0.00413983 -6.95625e-17)
(0.00102095 0.00429811 2.68015e-15)
(0.00126566 0.00412066 -2.04422e-15)
(0.00150363 0.00389246 2.54236e-15)
(0.0017681 0.00371858 8.73722e-15)
(0.00194289 0.00345204 -1.09224e-13)
(0.0020788 0.00315409 -1.4709e-14)
(0.00218728 0.00285986 1.70532e-13)
(0.00222522 0.00253892 -7.21362e-14)
(0.00222176 0.00221487 -1.53112e-13)
(0.00218056 0.00190211 -2.98938e-13)
(0.00209783 0.00160193 -2.46545e-13)
(0.00199239 0.00132241 -1.69468e-13)
(0.00186933 0.00106626 -6.17361e-14)
(0.00173724 0.000829279 -2.27029e-13)
(0.00164932 0.000666381 -3.15598e-13)
(0.00160763 0.000522879 -1.39072e-13)
(0.0015648 0.000358525 3.57539e-13)
(0.00153471 0.000157179 3.28319e-13)
(0.00143904 -0.000223772 -2.15522e-14)
(0.000898389 -0.000778985 -5.04634e-14)
(-3.60765e-05 -0.000670285 -1.59424e-13)
(-0.000198961 0.000581359 -9.28705e-14)
(0.000950092 0.00152715 4.27742e-14)
(0.0023014 0.000759744 3.30699e-14)
(0.00255553 -0.000928653 3.72154e-15)
(0.00107216 -0.00174416 -1.98444e-14)
(-0.000514703 -0.0011845 7.40404e-14)
(-0.00170623 5.03629e-06 1.54724e-13)
(-0.000617368 0.000665249 -1.04855e-14)
(0.00100479 0.000663309 2.72401e-14)
(0.00209896 0.000339214 4.74e-14)
(0.00101141 0.00182409 -1.85036e-14)
(-0.0150015 0.00177823 1.74107e-13)
(-0.00426118 -0.00176523 7.94643e-14)
(-0.000297343 -0.00236904 -6.40099e-14)
(-0.0057498 0.00609879 -1.89319e-14)
(-0.00023734 0.0047255 1.65613e-14)
(-0.000459386 0.00425075 2.03027e-14)
(-0.000645686 0.003561 8.22329e-15)
(-0.00079878 0.00308714 9.76786e-14)
(-0.000880704 0.00256883 -1.73032e-13)
(-0.000916063 0.00210385 8.97484e-14)
(-0.00100698 0.00190586 1.5156e-13)
(-0.0011777 0.00183842 6.62212e-14)
(-0.00130188 0.00170156 -3.68015e-14)
(-0.00137161 0.0015193 -3.43634e-14)
(-0.00139896 0.00132914 2.17015e-14)
(-0.0013845 0.00114087 3.71913e-14)
(-0.00133138 0.00096019 -8.99277e-14)
(-0.00125697 0.000797451 6.45165e-14)
(-0.0011692 0.000655006 1.64839e-14)
(-0.00107062 0.000531068 -1.11043e-14)
(-0.000971461 0.000427307 -5.77554e-14)
(-0.000874625 0.000341796 -5.77544e-14)
(-0.000783533 0.000271859 4.90029e-14)
(-0.000698927 0.00021448 1.42874e-14)
(-0.000621806 0.000167467 4.91009e-15)
(-0.000550727 0.000128511 5.16096e-14)
(-0.000484138 9.56312e-05 2.09248e-14)
(-0.000420089 6.75009e-05 -2.4467e-15)
(-0.000360275 4.3922e-05 6.8289e-15)
(-0.000306428 2.55267e-05 -4.75005e-15)
(-0.000258202 1.24854e-05 -9.34141e-15)
(-0.00021713 3.78912e-06 1.37066e-15)
(-0.000182631 -3.09692e-06 -1.20207e-15)
(-0.00015024 -8.93517e-06 -4.11397e-16)
(-0.000118088 -1.17591e-05 -1.06372e-15)
(-9.34132e-05 -1.10321e-05 1.15381e-15)
(-8.57165e-05 -1.28683e-05 2.87109e-15)
(-5.46419e-05 -1.57126e-05 2.42807e-15)
(1.40216e-06 6.69589e-06 1.38911e-15)
(-2.26544e-05 4.03299e-05 -5.26665e-15)
(-2.54436e-05 2.48455e-05 3.21207e-15)
(9.43112e-05 5.74786e-05 3.60622e-14)
(8.37325e-05 0.000543502 4.11174e-14)
(6.32831e-05 0.00431501 7.45282e-16)
(0.000339318 0.0041423 1.78199e-15)
(0.000582582 0.00366126 -2.57014e-15)
(0.000901316 0.00380486 3.65581e-15)
(0.00111504 0.00366107 -7.17316e-15)
(0.00132366 0.00347049 1.08624e-14)
(0.0015588 0.00333568 -1.31822e-14)
(0.00171706 0.00311668 -2.4731e-14)
(0.00184304 0.00286887 -3.28676e-14)
(0.00194872 0.00262546 -4.65295e-14)
(0.00199222 0.00235271 1.86739e-14)
(0.00199954 0.00207326 1.77999e-13)
(0.00197382 0.00179972 2.41165e-13)
(0.00190883 0.00153211 3.87583e-14)
(0.00182112 0.00127952 4.911e-15)
(0.00171592 0.0010457 1.13653e-14)
(0.00159642 0.000835127 -4.05358e-14)
(0.00150379 0.000644714 1.28431e-13)
(0.00147367 0.000491167 1.17389e-13)
(0.00143665 0.000333428 -2.7052e-13)
(0.00139111 0.000145181 -2.75392e-14)
(0.00127333 -0.000144858 5.69546e-14)
(0.000859746 -0.000517733 -7.35944e-14)
(0.000200493 -0.00041663 7.8012e-14)
(7.88517e-05 0.000489437 1.13805e-15)
(0.000919652 0.00116789 -1.45189e-14)
(0.00182431 0.000563619 -4.25938e-14)
(0.00161582 -0.000709472 1.75317e-15)
(0.000414171 -0.00126854 -4.27781e-17)
(-0.000722108 -0.000728671 3.50196e-14)
(-0.00108772 0.000143381 1.7024e-14)
(-0.000743808 0.00065187 -7.45475e-14)
(3.9718e-05 0.000634535 -3.44086e-14)
(0.000815367 0.000310901 1.72324e-13)
(0.000166337 0.000220465 2.68291e-14)
(-0.00907165 0.005021 -1.27659e-13)
(0.00601027 -0.00360011 -4.21488e-14)
(0.0133284 -0.0139461 5.03988e-14)
(0.00145198 0.00783971 -1.68539e-15)
(-0.000177659 0.0041146 3.43827e-15)
(-0.00037312 0.0037232 -4.87373e-14)
(-0.000540354 0.00314729 2.41653e-14)
(-0.000681947 0.00274747 2.13132e-14)
(-0.000763502 0.00230766 4.61627e-14)
(-0.000828358 0.00198055 -1.54608e-14)
(-0.000945943 0.00184475 -3.71631e-14)
(-0.00110384 0.00176803 -3.78479e-15)
(-0.00121628 0.00163629 -2.619e-15)
(-0.00128104 0.00146884 1.39852e-14)
(-0.00131215 0.00129651 4.01327e-14)
(-0.00130685 0.00112582 6.60108e-14)
(-0.00126657 0.000959813 -4.63108e-15)
(-0.0012064 0.000808063 -1.3475e-13)
(-0.0011314 0.000672379 2.62886e-14)
(-0.0010445 0.000552078 7.69949e-14)
(-0.000955252 0.000449335 5.91211e-14)
(-0.000865509 0.000362731 2.68695e-14)
(-0.000779447 0.000290752 -2.22981e-14)
(-0.000698039 0.000231045 -5.95141e-15)
(-0.000622663 0.000181661 -2.35553e-14)
(-0.000552257 0.000140537 -4.32159e-14)
(-0.000485703 0.000105819 1.78025e-14)
(-0.000421521 7.62277e-05 1.67753e-14)
(-0.000361764 5.16046e-05 2.9929e-15)
(-0.00030807 3.23846e-05 1.69952e-14)
(-0.000259921 1.8512e-05 5.94313e-15)
(-0.00021869 9.0536e-06 -1.00131e-15)
(-0.000183789 1.60777e-06 1.12692e-15)
(-0.000151197 -4.67365e-06 4.60591e-16)
(-0.000119097 -7.69048e-06 -1.28965e-15)
(-9.40192e-05 -7.3397e-06 -1.52538e-15)
(-8.57703e-05 -9.67673e-06 -7.65314e-16)
(-5.46341e-05 -1.45195e-05 -4.23561e-16)
(2.97845e-06 -6.14111e-06 2.77301e-15)
(-1.9244e-05 1.40609e-05 -4.82854e-16)
(-1.95992e-05 1.34019e-05 1.16868e-14)
(0.000117208 3.55714e-05 -1.28394e-14)
(0.000439622 0.000139853 -6.19541e-15)
(8.2533e-05 0.00377749 3.83299e-15)
(0.000320704 0.00362972 -1.38118e-15)
(0.000530349 0.00324744 -2.60382e-15)
(0.000809577 0.00337626 -3.58022e-15)
(0.000999357 0.00325828 1.34943e-14)
(0.00118482 0.00309803 -1.80232e-14)
(0.00139595 0.00299113 -5.32326e-15)
(0.00153935 0.00280628 3.49569e-14)
(0.00165789 0.00259814 1.94675e-14)
(0.00176023 0.00239277 3.56161e-14)
(0.00180747 0.00215643 8.01046e-14)
(0.00182427 0.00191203 6.46535e-14)
(0.00181088 0.00166882 -1.52445e-13)
(0.00176103 0.00142633 -2.45621e-13)
(0.00169008 0.00119459 4.21462e-14)
(0.0015999 0.000977221 3.12432e-13)
(0.00149615 0.000775162 6.40653e-14)
(0.00139068 0.000592722 -1.77669e-13)
(0.00135842 0.000445368 -3.36402e-14)
(0.00132309 0.000305019 3.06978e-14)
(0.0012697 0.000138552 -6.90853e-14)
(0.00115035 -9.06046e-05 -8.93709e-14)
(0.00082264 -0.000343253 1.02228e-14)
(0.000338805 -0.000237148 6.91484e-14)
(0.000244611 0.000436206 6.00148e-14)
(0.000860879 0.000934842 -3.41394e-15)
(0.0015078 0.000457711 3.58836e-14)
(0.00127312 -0.000561809 6.43444e-15)
(0.000288437 -0.00100706 6.16436e-14)
(-0.000498782 -0.000551299 -4.58671e-14)
(-0.000623245 0.000188405 -1.60023e-13)
(-0.000305495 0.000615561 -5.10158e-14)
(0.000141574 0.00059117 2.84634e-14)
(0.000550153 0.000293587 1.5451e-14)
(0.000785646 -3.50662e-05 -4.28658e-15)
(0.00169239 -0.00101145 5.12209e-15)
(0.000700722 0.000593075 1.81656e-14)
(-0.0114052 0.00454079 4.58335e-15)
(-0.00343865 0.00563446 2.44474e-14)
(-0.000128278 0.0036031 -8.58913e-15)
(-0.000302813 0.00327566 -7.71651e-15)
(-0.000454253 0.00279193 -1.34551e-14)
(-0.000583561 0.00245281 -1.72028e-14)
(-0.000663194 0.00207754 2.98332e-14)
(-0.000747947 0.00185287 -4.30626e-14)
(-0.000879072 0.00176059 -1.7214e-14)
(-0.0010234 0.00168083 6.62172e-14)
(-0.00112752 0.00155746 -3.99427e-14)
(-0.00118885 0.00140509 7.04447e-14)
(-0.00122336 0.00125123 6.77592e-14)
(-0.00122583 0.00109807 4.37171e-14)
(-0.00119655 0.000947283 3.29644e-14)
(-0.00114934 0.000807813 4.9007e-14)
(-0.00108703 0.000680854 -1.39877e-14)
(-0.00101153 0.000565727 3.09904e-15)
(-0.000932343 0.000465565 3.52952e-14)
(-0.000850514 0.000379208 2.71885e-14)
(-0.000770239 0.000306059 -2.56775e-15)
(-0.000692911 0.000244439 -5.44062e-14)
(-0.00062016 0.000192917 -9.50353e-15)
(-0.000551227 0.000149608 2.09107e-16)
(-0.000485426 0.000112963 -3.83818e-14)
(-0.000421655 8.17957e-05 4.18409e-15)
(-0.000362439 5.60163e-05 -6.3418e-15)
(-0.000309197 3.58183e-05 -1.29907e-14)
(-0.000261343 2.10158e-05 9.08807e-16)