/*--------------------------------*- C++ -*----------------------------------*\
| =========                 |                                                 |
| \\      /  F ield         | OpenFOAM: The Open Source CFD Toolbox           |
|  \\    /   O peration     | Version:  2312                                  |
|   \\  /    A nd           | Website:  www.openfoam.com                      |
|    \\/     M anipulation  |                                                 |
\*---------------------------------------------------------------------------*/
FoamFile
{
    version     2.0;
    format      ascii;
    arch        "LSB;label=32;scalar=64";
    class       volScalarField;
    location    "300";
    object      nut;
}
// * * * * * * * * * * * * * * * * * * * * * * * * * * * * * * * * * * * * * //

dimensions      [0 2 -1 0 0 0 0];

internalField   nonuniform List<scalar> 
10720
(
2.58149e-05
2.95424e-05
3.45312e-05
4.09952e-05
4.93205e-05
6.00387e-05
7.38701e-05
9.11766e-05
0.000112996
0.000140373
0.000175263
0.000220781
0.000281358
0.000364951
0.00048515
0.000663978
0.000946078
0.00139553
0.00221804
0.00358998
0.00690549
0.0127141
0.0339481
0.0760711
0.0937178
0.0946332
0.0956832
0.0992244
0.102744
0.104482
0.104458
0.103209
0.100841
0.0974107
0.092792
0.0869112
0.0784487
0.0683188
0.0332573
2.25886e-05
1.98092e-05
1.70784e-05
1.4588e-05
1.22535e-05
1.01105e-05
8.24773e-06
6.9644e-06
8.09675e-06
1.07893e-05
1.5478e-05
2.32214e-05
3.55673e-05
5.44417e-05
8.13709e-05
0.000117923
0.00016715
0.000236238
0.000339327
0.000501725
0.000773112
0.00124173
0.00211714
0.00376914
0.0073264
0.0147198
0.0324698
0.0663113
0.093462
0.10502
0.108429
0.109371
0.109467
0.108971
0.10797
0.106573
0.104428
0.101993
0.0924566
5.08524e-06
4.98009e-06
4.88522e-06
4.8066e-06
4.7164e-06
4.63359e-06
4.57227e-06
4.51859e-06
4.49552e-06
4.51589e-06
4.54339e-06
4.81911e-06
5.88111e-06
8.65823e-06
1.64265e-05
3.68448e-05
8.39506e-05
0.00016286
0.000315656
0.000588822
0.00132168
0.00283119
0.00712116
0.0204936
0.0394704
0.0632569
0.0925534
0.123742
0.148781
0.162731
0.168018
0.168833
0.16724
0.163885
0.159372
0.153868
0.148555
0.139531
0.139938
5.16885e-06
5.2821e-06
5.37861e-06
5.5096e-06
5.64388e-06
5.77975e-06
5.91084e-06
6.02136e-06
5.95898e-06
5.81771e-06
5.62469e-06
5.39043e-06
5.12421e-06
4.82957e-06
4.49583e-06
4.11985e-06
3.67676e-06
3.16251e-06
2.54834e-06
1.84355e-06
1.07408e-06
4.2055e-07
5.4097e-08
1.46817e-09
9.22928e-09
9.36599e-05
0.000539627
0.00415511
0.0141123
0.0287154
0.0437228
0.0550585
0.0618217
0.0656038
0.0680019
0.0699924
0.0717243
0.0752964
0.0784571
6.2663e-06
6.28364e-06
6.30161e-06
6.32095e-06
6.34464e-06
6.37115e-06
6.40148e-06
6.43694e-06
6.4788e-06
6.52781e-06
6.58604e-06
6.65772e-06
6.73679e-06
6.88023e-06
6.90011e-06
6.44983e-06
4.78144e-06
4.44209e-06
6.49112e-08
9.72934e-05
9.81334e-15
2.54476e-05
6.81403e-07
0.000556693
0.00298872
0.00756702
0.0157091
0.0310647
0.0574171
0.0938867
0.132916
0.164598
0.184988
0.196818
0.203509
0.206388
0.207631
0.201532
0.210316
6.25303e-06
6.234e-06
6.21945e-06
6.19786e-06
6.17932e-06
6.1594e-06
6.14167e-06
6.12766e-06
6.1324e-06
6.14734e-06
6.16695e-06
6.19093e-06
6.22027e-06
6.25312e-06
6.29015e-06
6.33108e-06
6.37757e-06
6.43087e-06
6.49459e-06
6.57204e-06
6.6715e-06
6.79907e-06
6.98037e-06
7.17368e-06
7.43615e-06
7.15698e-06
7.24786e-06
2.48489e-06
8.36066e-05
0.000790056
0.00301665
0.0075405
0.0142506
0.0224333
0.0311549
0.0396
0.047001
0.0536711
0.063164
6.08619e-06
6.08379e-06
6.08318e-06
6.08355e-06
6.08448e-06
6.08714e-06
6.09203e-06
6.09877e-06
6.10882e-06
6.12242e-06
6.14039e-06
6.1639e-06
6.19449e-06
6.23338e-06
6.28545e-06
6.33531e-06
6.22259e-06
5.98048e-06
4.0891e-06
1.48325e-06
1.54322e-08
2.43035e-07
1.15698e-09
9.24738e-05
0.000624894
2.11598e-06
0.000220002
0.000851792
0.00418
0.013684
0.0356935
0.0728374
0.11891
0.161419
0.193308
0.215441
0.232026
0.239215
0.255296
6.08687e-06
6.08921e-06
6.09234e-06
6.09453e-06
6.09832e-06
6.10035e-06
6.10167e-06
6.1026e-06
6.10046e-06
6.09777e-06
6.09429e-06
6.09055e-06
6.08708e-06
6.08367e-06
6.08033e-06
6.07685e-06
6.07317e-06
6.06917e-06
6.06411e-06
6.05903e-06
6.05366e-06
6.04792e-06
6.04111e-06
6.03483e-06
6.02804e-06
6.03036e-06
6.02312e-06
6.08239e-06
5.99946e-06
5.94973e-06
5.21488e-06
4.16246e-06
0.000226518
0.00104692
0.00305726
0.00691938
0.0131056
0.0218239
0.0392121
6.11127e-06
6.11183e-06
6.1121e-06
6.11299e-06
6.11454e-06
6.11651e-06
6.11917e-06
6.12275e-06
6.12745e-06
6.13363e-06
6.14172e-06
6.1523e-06
6.16619e-06
6.18401e-06
6.20827e-06
6.23737e-06
6.27881e-06
6.30113e-06
6.54847e-06
6.19541e-06
4.5766e-06
1.18894e-06
1.48716e-08
4.74815e-10
0
4.48101e-09
1.17581e-05
0.000175319
0.000939011
0.00055054
0.00165612
0.00801887
0.0296027
0.070766
0.12421
0.175156
0.217275
0.248126
0.278333
6.11132e-06
6.10994e-06
6.11064e-06
6.10958e-06
6.11046e-06
6.10925e-06
6.10714e-06
6.10525e-06
6.10419e-06
6.10394e-06
6.10392e-06
6.10383e-06
6.10417e-06
6.1047e-06
6.10566e-06
6.10689e-06
6.10844e-06
6.11028e-06
6.11247e-06
6.11495e-06
6.11771e-06
6.12075e-06
6.12418e-06
6.12798e-06
6.13291e-06
6.1372e-06
6.15044e-06
6.13011e-06
6.27269e-06
5.6954e-06
8.70678e-06
5.82053e-07
2.55588e-05
0.000245362
0.000716175
0.00164855
0.000735373
0.00164091
0.0136822
6.10514e-06
6.10491e-06
6.10521e-06
6.10545e-06
6.10555e-06
6.10595e-06
6.10655e-06
6.10732e-06
6.10853e-06
6.11022e-06
6.11254e-06
6.11576e-06
6.12012e-06
6.12602e-06
6.13419e-06
6.14502e-06
6.15928e-06
6.17485e-06
6.22467e-06
6.32691e-06
6.73635e-06
6.10052e-06
4.62408e-06
3.3026e-07
9.50804e-09
1.99541e-09
8.48692e-11
0
0
0.00010227
0.000369061
0.00183015
0.000377611
0.00874719
0.0381205
0.0933781
0.160511
0.224085
0.278391
6.10467e-06
6.10398e-06
6.10489e-06
6.10467e-06
6.10637e-06
6.1061e-06
6.10473e-06
6.10353e-06
6.10255e-06
6.10195e-06
6.10151e-06
6.10102e-06
6.10077e-06
6.1006e-06
6.10059e-06
6.10062e-06
6.10074e-06
6.10094e-06
6.10119e-06
6.10144e-06
6.10167e-06
6.10179e-06
6.10186e-06
6.10151e-06
6.10144e-06
6.10175e-06
6.10216e-06
6.10395e-06
6.10355e-06
6.11288e-06
6.09583e-06
6.18556e-06
5.45164e-06
3.43038e-06
2.82201e-12
3.08704e-09
0.000163461
0.000429303
0.00237776
6.10538e-06
6.10559e-06
6.10575e-06
6.10579e-06
6.10591e-06
6.106e-06
6.10618e-06
6.10652e-06
6.10699e-06
6.1077e-06
6.10874e-06
6.11021e-06
6.11227e-06
6.11515e-06
6.11911e-06
6.1247e-06
6.13215e-06
6.14052e-06
6.15043e-06
6.15798e-06
6.2219e-06
6.46181e-06
6.97633e-06
5.98869e-06
3.42288e-06
1.21927e-06
5.07836e-08
7.96074e-09
2.95297e-09
2.59518e-11
0
0
5.59327e-05
0.00205588
0.00168572
0.0217689
0.0782907
0.16627
0.252377
6.10491e-06
6.10385e-06
6.10424e-06
6.10392e-06
6.10557e-06
6.1055e-06
6.10431e-06
6.10315e-06
6.10226e-06
6.10175e-06
6.10138e-06
6.10118e-06
6.10106e-06
6.10111e-06
6.10106e-06
6.1011e-06
6.10127e-06
6.1015e-06
6.10183e-06
6.10224e-06
6.10275e-06
6.10332e-06
6.104e-06
6.10479e-06
6.10577e-06
6.10705e-06
6.10872e-06
6.11081e-06
6.11344e-06
6.11668e-06
6.12015e-06
6.12432e-06
6.17608e-06
5.873e-06
5.32426e-06
1.1702e-06
1.09996e-08
1.66378e-11
5.97706e-05
6.10495e-06
6.10509e-06
6.10537e-06
6.10534e-06
6.10515e-06
6.10502e-06
6.10487e-06
6.1047e-06
6.10466e-06
6.10466e-06
6.10475e-06
6.10498e-06
6.10535e-06
6.10594e-06
6.10683e-06
6.1082e-06
6.11018e-06
6.11263e-06
6.11575e-06
6.11651e-06
6.11133e-06
6.15151e-06
6.3163e-06
6.74263e-06
6.84593e-06
6.32415e-06
5.01067e-06
3.17047e-06
1.53894e-06
1.35475e-08
7.30226e-09
1.54296e-11
0
0
0.000387667
0.00542883
0.0161817
0.0905067
0.200121
6.10436e-06
6.10321e-06
6.10321e-06
6.10279e-06
6.10441e-06
6.10455e-06
6.10365e-06
6.10262e-06
6.10181e-06
6.10134e-06
6.10103e-06
6.10086e-06
6.10079e-06
6.10088e-06
6.10097e-06
6.10108e-06
6.10115e-06
6.10115e-06
6.10123e-06
6.10133e-06
6.10146e-06
6.10159e-06
6.10176e-06
6.10191e-06
6.10203e-06
6.1022e-06
6.10243e-06
6.10268e-06
6.10295e-06
6.10304e-06
6.10353e-06
6.10118e-06
6.11449e-06
6.08678e-06
6.29142e-06
5.5848e-06
3.00251e-06
1.78107e-08
5.6626e-07
6.10487e-06
6.105e-06
6.10514e-06
6.10495e-06
6.10477e-06
6.10449e-06
6.10426e-06
6.10414e-06
6.10402e-06
6.10396e-06
6.10399e-06
6.10409e-06
6.10432e-06
6.10473e-06
6.10535e-06
6.1063e-06
6.10773e-06
6.1096e-06
6.11158e-06
6.11377e-06
6.11257e-06
6.10854e-06
6.11214e-06
6.2052e-06
6.40153e-06
6.64801e-06
6.92699e-06
6.91063e-06
6.76678e-06
4.88724e-06
2.87324e-06
7.50938e-09
3.11783e-09
0
0
0
0.00443168
0.0310058
0.132969
6.1043e-06
6.10304e-06
6.1027e-06
6.10211e-06
6.10364e-06
6.1039e-06
6.10321e-06
6.10225e-06
6.10155e-06
6.1011e-06
6.10085e-06
6.10072e-06
6.10066e-06
6.10074e-06
6.10083e-06
6.10098e-06
6.10111e-06
6.10125e-06
6.10134e-06
6.10134e-06
6.10141e-06
6.10153e-06
6.10169e-06
6.10188e-06
6.10209e-06
6.10243e-06
6.10293e-06
6.1036e-06
6.10445e-06
6.10551e-06
6.10686e-06
6.10831e-06
6.11065e-06
6.10931e-06
6.14484e-06
6.21152e-06
6.61213e-06
4.51002e-06
2.6188e-09
6.10478e-06
6.10479e-06
6.1048e-06
6.10452e-06
6.10421e-06
6.10392e-06
6.10363e-06
6.1034e-06
6.10318e-06
6.103e-06
6.10285e-06
6.10274e-06
6.10266e-06
6.1026e-06
6.10257e-06
6.10257e-06
6.10264e-06
6.10271e-06
6.1029e-06
6.10376e-06
6.10471e-06
6.10451e-06
6.10277e-06
6.10188e-06
6.12124e-06
6.17708e-06
6.28965e-06
6.48846e-06
6.81963e-06
7.20759e-06
7.52031e-06
5.19644e-06
1.20823e-06
1.0847e-08
0
0
0
0.00871822
0.0716785
6.10429e-06
6.10301e-06
6.10237e-06
6.10159e-06
6.10299e-06
6.10334e-06
6.10278e-06
6.10191e-06
6.1013e-06
6.10091e-06
6.10075e-06
6.10059e-06
6.10051e-06
6.10056e-06
6.10062e-06
6.10078e-06
6.10095e-06
6.10113e-06
6.10129e-06
6.10145e-06
6.10155e-06
6.10164e-06
6.10163e-06
6.10165e-06
6.10169e-06
6.10179e-06
6.10197e-06
6.10224e-06
6.10257e-06
6.10299e-06
6.10341e-06
6.10413e-06
6.10377e-06
6.10938e-06
6.09188e-06
6.19298e-06
5.82532e-06
8.76117e-06
5.69738e-07
6.10466e-06
6.10453e-06
6.10439e-06
6.10405e-06
6.1037e-06
6.10336e-06
6.10307e-06
6.10287e-06
6.10268e-06
6.10255e-06
6.10246e-06
6.10239e-06
6.10238e-06
6.10242e-06
6.10253e-06
6.10274e-06
6.10306e-06
6.10357e-06
6.10414e-06
6.10473e-06
6.10534e-06
6.10556e-06
6.10591e-06
6.10564e-06
6.10288e-06
6.09794e-06
6.09492e-06
6.11576e-06
6.18761e-06
6.42083e-06
6.83929e-06
7.63538e-06
7.20837e-06
3.02301e-06
1.57728e-08
0
0
0.000680708
0.0326316
6.1043e-06
6.10306e-06
6.1022e-06
6.10125e-06
6.10251e-06
6.10289e-06
6.10242e-06
6.10163e-06
6.1011e-06
6.10077e-06
6.1006e-06
6.10044e-06
6.10034e-06
6.10035e-06
6.10041e-06
6.10055e-06
6.10071e-06
6.10091e-06
6.1011e-06
6.10128e-06
6.10144e-06
6.10159e-06
6.10171e-06
6.1018e-06
6.10185e-06
6.10192e-06
6.10206e-06
6.10229e-06
6.10262e-06
6.10305e-06
6.10356e-06
6.10441e-06
6.10438e-06
6.10889e-06
6.09368e-06
6.16479e-06
5.85604e-06
7.14868e-06
4.37062e-06
6.10448e-06
6.10419e-06
6.10395e-06
6.10357e-06
6.1032e-06
6.10286e-06
6.10257e-06
6.10237e-06
6.10218e-06
6.10205e-06
6.10195e-06
6.10187e-06
6.10181e-06
6.10179e-06
6.10179e-06
6.10183e-06
6.10191e-06
6.10204e-06
6.10227e-06
6.10267e-06
6.10333e-06
6.10405e-06
6.1047e-06
6.10598e-06
6.10755e-06
6.10737e-06
6.10124e-06
6.08811e-06
6.07045e-06
6.08567e-06
6.15084e-06
6.49589e-06
7.22437e-06
7.80375e-06
3.9998e-06
1.05036e-08
0
0.000278094
0.0128999
6.10429e-06
6.10312e-06
6.1021e-06
6.10101e-06
6.10212e-06
6.1025e-06
6.1021e-06
6.10137e-06
6.1009e-06
6.1006e-06
6.10045e-06
6.10031e-06
6.10017e-06
6.10016e-06
6.10017e-06
6.10029e-06
6.10043e-06
6.10062e-06
6.10082e-06
6.10104e-06
6.10125e-06
6.10146e-06
6.10165e-06
6.10181e-06
6.10196e-06
6.10204e-06
6.10208e-06
6.10217e-06
6.10232e-06
6.10255e-06
6.10284e-06
6.10327e-06
6.10352e-06
6.10509e-06
6.10165e-06
6.11928e-06
6.05975e-06
6.20385e-06
6.16216e-06
6.10424e-06
6.10382e-06
6.10351e-06
6.10312e-06
6.10275e-06
6.10241e-06
6.10214e-06
6.10196e-06
6.1018e-06
6.10171e-06
6.10165e-06
6.10161e-06
6.10159e-06
6.10159e-06
6.10161e-06
6.10168e-06
6.10179e-06
6.10197e-06
6.10222e-06
6.10254e-06
6.10294e-06
6.10348e-06
6.10402e-06
6.10472e-06
6.10618e-06
6.10848e-06
6.11011e-06
6.10793e-06
6.09792e-06
6.08125e-06
6.05842e-06
6.06378e-06
6.25198e-06
6.81376e-06
8.53769e-06
2.50757e-06
5.19954e-12
7.11951e-05
0.00427458
6.10422e-06
6.10316e-06
6.10207e-06
6.10085e-06
6.10181e-06
6.10217e-06
6.10181e-06
6.10115e-06
6.10072e-06
6.10044e-06
6.10027e-06
6.10013e-06
6.09999e-06
6.09994e-06
6.09994e-06
6.10002e-06
6.10015e-06
6.10034e-06
6.10055e-06
6.10079e-06
6.10104e-06
6.10129e-06
6.10151e-06
6.10171e-06
6.10191e-06
6.10206e-06
6.10212e-06
6.10216e-06
6.10224e-06
6.10239e-06
6.10262e-06
6.10293e-06
6.10335e-06
6.10373e-06
6.10479e-06
6.10288e-06
6.11695e-06
6.05232e-06
6.25706e-06
6.10394e-06
6.10344e-06
6.10309e-06
6.10271e-06
6.10234e-06
6.102e-06
6.10177e-06
6.10162e-06
6.10151e-06
6.10146e-06
6.10143e-06
6.10141e-06
6.10141e-06
6.10142e-06
6.10143e-06
6.10148e-06
6.10154e-06
6.10165e-06
6.1018e-06
6.10203e-06
6.10236e-06
6.1028e-06
6.10334e-06
6.10392e-06
6.10474e-06
6.10619e-06
6.10848e-06
6.11086e-06
6.1117e-06
6.10782e-06
6.09726e-06
6.06794e-06
6.04884e-06
6.09031e-06
6.70924e-06
1.02576e-05
1.09809e-11
1.23081e-06
0.00108168
6.10408e-06
6.10317e-06
6.10204e-06
6.10075e-06
6.10155e-06
6.10188e-06
6.10155e-06
6.10094e-06
6.10054e-06
6.10026e-06
6.10009e-06
6.09997e-06
6.09981e-06
6.09973e-06
6.09971e-06
6.09978e-06
6.09991e-06
6.10009e-06
6.10029e-06
6.10054e-06
6.10079e-06
6.10105e-06
6.10131e-06
6.10154e-06
6.10178e-06
6.10197e-06
6.1021e-06
6.10217e-06
6.10219e-06
6.10225e-06
6.10238e-06
6.10257e-06
6.10288e-06
6.10308e-06
6.10415e-06
6.10214e-06
6.11261e-06
6.08124e-06
6.14632e-06
6.10361e-06
6.10308e-06
6.1027e-06
6.10233e-06
6.10197e-06
6.10165e-06
6.10147e-06
6.10137e-06
6.10131e-06
6.1013e-06
6.10131e-06
6.10132e-06
6.10134e-06
6.10138e-06
6.10141e-06
6.10146e-06
6.10152e-06
6.10162e-06
6.10175e-06
6.10194e-06
6.10218e-06
6.1025e-06
6.10292e-06
6.10343e-06
6.10406e-06
6.10493e-06
6.10631e-06
6.1083e-06
6.11079e-06
6.11291e-06
6.11357e-06
6.10986e-06
6.07787e-06
6.10866e-06
5.64547e-06
9.25327e-06
2.65382e-06
2.53468e-10
5.70047e-05
6.10388e-06
6.10314e-06
6.10203e-06
6.10068e-06
6.10134e-06
6.10162e-06
6.10131e-06
6.10076e-06
6.10037e-06
6.10008e-06
6.09991e-06
6.09978e-06
6.09962e-06
6.09954e-06
6.09951e-06
6.09956e-06
6.09966e-06
6.09982e-06
6.10002e-06
6.10026e-06
6.10051e-06
6.10079e-06
6.10107e-06
6.10133e-06
6.1016e-06
6.10182e-06
6.102e-06
6.10212e-06
6.10219e-06
6.10221e-06
6.10228e-06
6.1024e-06
6.1026e-06
6.10282e-06
6.10332e-06
6.10317e-06
6.1056e-06
6.10207e-06
6.10727e-06
6.10328e-06
6.10275e-06
6.10235e-06
6.10198e-06
6.10165e-06
6.10138e-06
6.10124e-06
6.1012e-06
6.10119e-06
6.10122e-06
6.10127e-06
6.10132e-06
6.10137e-06
6.10141e-06
6.10145e-06
6.10151e-06
6.10156e-06
6.10164e-06
6.10174e-06
6.10188e-06
6.10207e-06
6.10233e-06
6.10266e-06
6.10308e-06
6.10363e-06
6.10433e-06
6.10528e-06
6.10658e-06
6.10829e-06
6.11063e-06
6.11257e-06
6.11906e-06
6.10169e-06
6.1657e-06
5.82147e-06
6.45916e-06
9.72721e-06
5.16714e-11
4.50278e-07
6.10365e-06
6.10306e-06
6.10199e-06
6.10063e-06
6.10115e-06
6.10138e-06
6.10109e-06
6.10058e-06
6.10019e-06
6.09991e-06
6.09974e-06
6.0996e-06
6.09944e-06
6.09935e-06
6.09931e-06
6.09935e-06
6.09944e-06
6.09959e-06
6.09978e-06
6.10001e-06
6.10026e-06
6.10054e-06
6.10083e-06
6.10112e-06
6.1014e-06
6.10166e-06
6.10188e-06
6.10204e-06
6.10216e-06
6.10222e-06
6.10224e-06
6.1023e-06
6.10242e-06
6.10259e-06
6.10284e-06
6.10321e-06
6.10342e-06
6.10576e-06
6.10271e-06
6.10297e-06
6.10243e-06
6.10201e-06
6.10166e-06
6.10138e-06
6.10116e-06
6.10108e-06
6.10109e-06
6.10113e-06
6.1012e-06
6.10128e-06
6.10135e-06
6.10141e-06
6.10148e-06
6.10152e-06
6.10158e-06
6.10164e-06
6.10171e-06
6.1018e-06
6.10191e-06
6.10207e-06
6.10227e-06
6.10254e-06
6.10288e-06
6.10333e-06
6.10394e-06
6.10473e-06
6.10574e-06
6.10696e-06
6.10866e-06
6.11008e-06
6.11471e-06
6.11256e-06
6.12442e-06
6.19253e-06
5.27143e-06
1.21062e-05
3.99588e-10
2.42532e-16
6.1034e-06
6.10295e-06
6.10194e-06
6.10059e-06
6.10098e-06
6.10116e-06
6.10089e-06
6.1004e-06
6.10002e-06
6.09973e-06
6.09956e-06
6.09941e-06
6.09926e-06
6.09917e-06
6.09913e-06
6.09916e-06
6.09924e-06
6.09937e-06
6.09955e-06
6.09976e-06
6.10001e-06
6.1003e-06
6.1006e-06
6.1009e-06
6.1012e-06
6.10147e-06
6.10171e-06
6.10191e-06
6.10207e-06
6.10218e-06
6.10224e-06
6.10226e-06
6.10231e-06
6.10242e-06
6.10259e-06
6.10291e-06
6.10302e-06
6.10493e-06
6.10362e-06
6.10267e-06
6.10214e-06
6.1017e-06
6.10139e-06
6.10115e-06
6.101e-06
6.10098e-06
6.10104e-06
6.10112e-06
6.10122e-06
6.10132e-06
6.10141e-06
6.10149e-06
6.10156e-06
6.10162e-06
6.10168e-06
6.10174e-06
6.10181e-06
6.10188e-06
6.10198e-06
6.10211e-06
6.10228e-06
6.1025e-06
6.10278e-06
6.10316e-06
6.10368e-06
6.10436e-06
6.10522e-06
6.10626e-06
6.10753e-06
6.10905e-06
6.11011e-06
6.11874e-06
6.08342e-06
6.31155e-06
5.31208e-06
9.47073e-06
1.61715e-06
4.97154e-10
6.10314e-06
6.10282e-06
6.10187e-06
6.10055e-06
6.10082e-06
6.10096e-06
6.10069e-06
6.10024e-06
6.09985e-06
6.09956e-06
6.09939e-06
6.09924e-06
6.09909e-06
6.099e-06
6.09896e-06
6.09898e-06
6.09906e-06
6.09918e-06
6.09934e-06
6.09955e-06
6.09979e-06
6.10007e-06
6.10037e-06
6.10067e-06
6.10098e-06
6.10127e-06
6.10153e-06
6.10176e-06
6.10195e-06
6.1021e-06
6.10221e-06
6.10226e-06
6.10228e-06
6.10233e-06
6.10244e-06
6.10265e-06
6.10285e-06
6.1041e-06
6.10386e-06
6.10239e-06
6.10186e-06
6.10142e-06
6.10116e-06
6.10098e-06
6.10089e-06
6.10094e-06
6.10103e-06
6.10114e-06
6.10126e-06
6.10137e-06
6.10148e-06
6.10156e-06
6.10164e-06
6.10171e-06
6.10177e-06
6.10183e-06
6.1019e-06
6.10197e-06
6.10205e-06
6.10216e-06
6.1023e-06
6.10249e-06
6.10272e-06
6.10304e-06
6.10348e-06
6.10407e-06
6.10482e-06
6.10575e-06
6.10678e-06
6.10845e-06
6.10803e-06
6.11884e-06
6.08137e-06
6.24414e-06
5.74491e-06
6.92532e-06
6.84638e-06
8.22173e-08
6.10286e-06
6.10266e-06
6.10178e-06
6.1005e-06
6.10067e-06
6.10077e-06
6.1005e-06
6.10007e-06
6.09969e-06
6.0994e-06
6.09922e-06
6.09906e-06
6.09892e-06
6.09884e-06
6.09881e-06
6.09883e-06
6.0989e-06
6.09901e-06
6.09916e-06
6.09935e-06
6.09958e-06
6.09985e-06
6.10014e-06
6.10045e-06
6.10076e-06
6.10105e-06
6.10133e-06
6.10158e-06
6.1018e-06
6.10198e-06
6.10213e-06
6.10223e-06
6.10228e-06
6.10229e-06
6.10236e-06
6.10249e-06
6.10268e-06
6.10365e-06
6.10362e-06
6.10212e-06
6.10161e-06
6.10116e-06
6.10097e-06
6.10086e-06
6.10083e-06
6.10092e-06
6.10104e-06
6.10117e-06
6.1013e-06
6.10143e-06
6.10154e-06
6.10164e-06
6.10172e-06
6.1018e-06
6.10187e-06
6.10194e-06
6.10201e-06
6.10208e-06
6.10216e-06
6.10226e-06
6.10238e-06
6.10253e-06
6.10272e-06
6.10299e-06
6.10336e-06
6.10386e-06
6.1045e-06
6.10532e-06
6.10621e-06
6.10773e-06
6.10763e-06
6.11477e-06
6.09756e-06
6.1522e-06
6.0773e-06
5.87525e-06
8.49056e-06
1.68131e-06
6.10259e-06
6.10248e-06
6.10168e-06
6.10045e-06
6.10053e-06
6.10058e-06
6.10032e-06
6.0999e-06
6.09953e-06
6.09925e-06
6.09906e-06
6.0989e-06
6.09876e-06
6.09869e-06
6.09866e-06
6.09868e-06
6.09874e-06
6.09885e-06
6.09899e-06
6.09917e-06
6.09938e-06
6.09964e-06
6.09993e-06
6.10023e-06
6.10054e-06
6.10083e-06
6.10111e-06
6.10137e-06
6.10161e-06
6.10182e-06
6.102e-06
6.10214e-06
6.10224e-06
6.10228e-06
6.10231e-06
6.10239e-06
6.10254e-06
6.10337e-06
6.10334e-06
6.10187e-06
6.10138e-06
6.10095e-06
6.10082e-06
6.10078e-06
6.1008e-06
6.10092e-06
6.10106e-06
6.1012e-06
6.10135e-06
6.10148e-06
6.1016e-06
6.10172e-06
6.10182e-06
6.1019e-06
6.10199e-06
6.10206e-06
6.10213e-06
6.10221e-06
6.10229e-06
6.10238e-06
6.10249e-06
6.10263e-06
6.10279e-06
6.10302e-06
6.10333e-06
6.10375e-06
6.1043e-06
6.10501e-06
6.10581e-06
6.10701e-06
6.10769e-06
6.11059e-06
6.11022e-06
6.1041e-06
6.19504e-06
5.73284e-06
7.57474e-06
4.59405e-06
6.10232e-06
6.10229e-06
6.10156e-06
6.10039e-06
6.10039e-06
6.1004e-06
6.10013e-06
6.09972e-06
6.09937e-06
6.0991e-06
6.0989e-06
6.09873e-06
6.09861e-06
6.09855e-06
6.09853e-06
6.09855e-06
6.09861e-06
6.0987e-06
6.09883e-06
6.09899e-06
6.09919e-06
6.09943e-06
6.09971e-06
6.1e-06
6.1003e-06
6.10058e-06
6.10087e-06
6.10114e-06
6.1014e-06
6.10163e-06
6.10184e-06
6.10201e-06
6.10215e-06
6.10225e-06
6.10225e-06
6.10229e-06
6.1024e-06
6.10312e-06
6.10311e-06
6.10164e-06
6.10118e-06
6.10078e-06
6.10072e-06
6.10072e-06
6.10079e-06
6.10092e-06
6.10108e-06
6.10123e-06
6.10139e-06
6.10154e-06
6.10167e-06
6.10179e-06
6.1019e-06
6.102e-06
6.10209e-06
6.10217e-06
6.10225e-06
6.10233e-06
6.10241e-06
6.1025e-06
6.1026e-06
6.10273e-06
6.10288e-06
6.10307e-06
6.10334e-06
6.10371e-06
6.10419e-06
6.1048e-06
6.10553e-06
6.10646e-06
6.1076e-06
6.10825e-06
6.11406e-06
6.09459e-06
6.18558e-06
5.89226e-06
6.61548e-06
6.1473e-06
6.10206e-06
6.10209e-06
6.10143e-06
6.10031e-06
6.10025e-06
6.10022e-06
6.09995e-06
6.09955e-06
6.09921e-06
6.09895e-06
6.09874e-06
6.09858e-06
6.09848e-06
6.09842e-06
6.0984e-06
6.09842e-06
6.09847e-06
6.09855e-06
6.09867e-06
6.09881e-06
6.099e-06
6.09922e-06
6.09948e-06
6.09977e-06
6.10006e-06
6.10035e-06
6.10063e-06
6.10091e-06
6.10118e-06
6.10143e-06
6.10167e-06
6.10187e-06
6.10204e-06
6.10218e-06
6.10225e-06
6.10227e-06
6.10233e-06
6.10293e-06
6.10292e-06
6.10142e-06
6.101e-06
6.10064e-06
6.10064e-06
6.10069e-06
6.10077e-06
6.10093e-06
6.1011e-06
6.10127e-06
6.10144e-06
6.1016e-06
6.10174e-06
6.10188e-06
6.102e-06
6.1021e-06
6.10221e-06
6.10229e-06
6.10238e-06
6.10246e-06
6.10255e-06
6.10264e-06
6.10274e-06
6.10286e-06
6.10299e-06
6.10316e-06
6.1034e-06
6.10372e-06
6.10414e-06
6.10467e-06
6.10533e-06
6.10609e-06
6.10728e-06
6.1075e-06
6.11279e-06
6.10049e-06
6.14623e-06
6.04456e-06
6.1713e-06
6.4147e-06
6.10182e-06
6.10188e-06
6.10129e-06
6.10023e-06
6.10011e-06
6.10004e-06
6.09976e-06
6.09937e-06
6.09904e-06
6.09879e-06
6.09858e-06
6.09843e-06
6.09834e-06
6.09829e-06
6.09827e-06
6.09828e-06
6.09833e-06
6.0984e-06
6.0985e-06
6.09864e-06
6.09881e-06
6.09902e-06
6.09927e-06
6.09954e-06
6.09983e-06
6.10011e-06
6.10039e-06
6.10067e-06
6.10095e-06
6.10122e-06
6.10147e-06
6.1017e-06
6.1019e-06
6.10207e-06
6.10219e-06
6.10224e-06
6.10227e-06
6.10277e-06
6.10277e-06
6.10123e-06
6.10085e-06
6.10054e-06
6.10058e-06
6.10066e-06
6.10076e-06
6.10094e-06
6.10112e-06
6.1013e-06
6.10149e-06
6.10166e-06
6.10181e-06
6.10196e-06
6.10209e-06
6.1022e-06
6.10231e-06
6.10241e-06
6.10251e-06
6.1026e-06
6.10269e-06
6.10278e-06
6.10288e-06
6.10299e-06
6.10312e-06
6.10328e-06
6.10349e-06
6.10376e-06
6.10413e-06
6.1046e-06
6.10519e-06
6.10587e-06
6.1069e-06
6.10741e-06
6.11048e-06
6.10702e-06
6.11961e-06
6.11403e-06
6.06203e-06
6.28494e-06
6.10158e-06
6.10168e-06
6.10114e-06
6.10013e-06
6.09996e-06
6.09986e-06
6.09957e-06
6.09919e-06
6.09887e-06
6.09862e-06
6.09843e-06
6.09828e-06
6.0982e-06
6.09815e-06
6.09813e-06
6.09814e-06
6.09818e-06
6.09825e-06
6.09834e-06
6.09847e-06
6.09862e-06
6.09882e-06
6.09906e-06
6.09932e-06
6.09959e-06
6.09986e-06
6.10014e-06
6.10042e-06
6.10071e-06
6.10098e-06
6.10125e-06
6.1015e-06
6.10173e-06
6.10193e-06
6.10208e-06
6.10218e-06
6.1022e-06
6.1026e-06
6.10265e-06
6.10105e-06
6.10071e-06
6.10046e-06
6.10053e-06
6.10063e-06
6.10075e-06
6.10095e-06
6.10115e-06
6.10134e-06
6.10154e-06
6.10172e-06
6.10188e-06
6.10204e-06
6.10218e-06
6.1023e-06
6.10242e-06
6.10253e-06
6.10264e-06
6.10274e-06
6.10283e-06
6.10293e-06
6.10304e-06
6.10315e-06
6.10327e-06
6.10341e-06
6.1036e-06
6.10385e-06
6.10417e-06
6.10458e-06
6.10511e-06
6.10573e-06
6.10658e-06
6.10737e-06
6.10889e-06
6.10998e-06
6.10967e-06
6.12742e-06
6.07423e-06
6.16492e-06
6.10136e-06
6.10147e-06
6.10098e-06
6.10003e-06
6.09981e-06
6.09967e-06
6.09938e-06
6.099e-06
6.09869e-06
6.09845e-06
6.09826e-06
6.09813e-06
6.09804e-06
6.098e-06
6.09798e-06
6.09799e-06
6.09803e-06
6.09809e-06
6.09817e-06
6.09829e-06
6.09843e-06
6.09862e-06
6.09884e-06
6.09909e-06
6.09936e-06
6.09962e-06
6.09989e-06
6.10017e-06
6.10045e-06
6.10074e-06
6.10102e-06
6.10128e-06
6.10153e-06
6.10176e-06
6.10194e-06
6.10209e-06
6.1021e-06
6.10241e-06
6.1025e-06
6.10088e-06
6.10058e-06
6.10037e-06
6.10048e-06
6.1006e-06
6.10075e-06
6.10096e-06
6.10117e-06
6.10138e-06
6.10159e-06
6.10178e-06
6.10196e-06
6.10212e-06
6.10227e-06
6.1024e-06
6.10253e-06
6.10265e-06
6.10277e-06
6.10287e-06
6.10298e-06
6.10308e-06
6.10319e-06
6.10331e-06
6.10343e-06
6.10357e-06
6.10374e-06
6.10396e-06
6.10424e-06
6.10461e-06
6.10508e-06
6.10565e-06
6.10636e-06
6.10725e-06
6.10815e-06
6.11031e-06
6.1084e-06
6.12169e-06
6.10071e-06
6.11787e-06
6.10115e-06
6.10127e-06
6.10082e-06
6.09991e-06
6.09965e-06
6.09948e-06
6.09918e-06
6.09881e-06
6.0985e-06
6.09827e-06
6.09809e-06
6.09796e-06
6.09788e-06
6.09784e-06
6.09782e-06
6.09784e-06
6.09787e-06
6.09793e-06
6.09801e-06
6.09812e-06
6.09825e-06
6.09842e-06
6.09863e-06
6.09887e-06
6.09912e-06
6.09937e-06
6.09964e-06
6.09991e-06
6.1002e-06
6.10049e-06
6.10077e-06
6.10106e-06
6.10133e-06
6.10158e-06
6.10179e-06
6.10197e-06
6.10199e-06
6.10222e-06
6.10235e-06
6.10072e-06
6.10046e-06
6.1003e-06
6.10044e-06
6.10057e-06
6.10074e-06
6.10097e-06
6.1012e-06
6.10142e-06
6.10164e-06
6.10184e-06
6.10202e-06
6.1022e-06
6.10236e-06
6.1025e-06
6.10264e-06
6.10277e-06
6.1029e-06
6.10301e-06
6.10313e-06
6.10324e-06
6.10336e-06
6.10348e-06
6.1036e-06
6.10373e-06
6.1039e-06
6.1041e-06
6.10436e-06
6.10468e-06
6.1051e-06
6.10562e-06
6.10625e-06
6.10708e-06
6.10787e-06
6.10969e-06
6.10933e-06
6.11528e-06
6.1134e-06
6.11106e-06
6.10095e-06
6.10107e-06
6.10064e-06
6.09978e-06
6.09949e-06
6.09929e-06
6.09898e-06
6.09861e-06
6.0983e-06
6.09808e-06
6.09791e-06
6.09779e-06
6.09771e-06
6.09768e-06
6.09766e-06
6.09767e-06
6.09771e-06
6.09776e-06
6.09783e-06
6.09793e-06
6.09806e-06
6.09822e-06
6.09842e-06
6.09864e-06
6.09888e-06
6.09913e-06
6.09938e-06
6.09965e-06
6.09993e-06
6.10022e-06
6.10052e-06
6.10081e-06
6.10109e-06
6.10136e-06
6.1016e-06
6.10181e-06
6.1019e-06
6.10206e-06
6.10222e-06
6.10057e-06
6.10035e-06
6.10022e-06
6.10039e-06
6.10055e-06
6.10074e-06
6.10098e-06
6.10122e-06
6.10145e-06
6.10168e-06
6.1019e-06
6.10209e-06
6.10228e-06
6.10244e-06
6.1026e-06
6.10275e-06
6.10289e-06
6.10302e-06
6.10315e-06
6.10327e-06
6.10339e-06
6.10352e-06
6.10364e-06
6.10377e-06
6.1039e-06
6.10406e-06
6.10425e-06
6.10449e-06
6.10479e-06
6.10516e-06
6.10563e-06
6.1062e-06
6.10695e-06
6.10774e-06
6.10908e-06
6.10992e-06
6.11223e-06
6.11548e-06
6.11453e-06
6.10075e-06
6.10087e-06
6.10047e-06
6.09964e-06
6.09932e-06
6.09909e-06
6.09877e-06
6.0984e-06
6.0981e-06
6.09789e-06
6.09772e-06
6.09761e-06
6.09753e-06
6.0975e-06
6.09749e-06
6.0975e-06
6.09753e-06
6.09758e-06
6.09765e-06
6.09775e-06
6.09786e-06
6.09801e-06
6.0982e-06
6.09841e-06
6.09864e-06
6.09887e-06
6.09912e-06
6.09938e-06
6.09966e-06
6.09994e-06
6.10024e-06
6.10054e-06
6.10084e-06
6.10113e-06
6.10139e-06
6.10162e-06
6.10177e-06
6.10188e-06
6.10209e-06
6.10042e-06
6.10024e-06
6.10015e-06
6.10034e-06
6.10052e-06
6.10073e-06
6.10099e-06
6.10124e-06
6.10149e-06
6.10173e-06
6.10195e-06
6.10216e-06
6.10235e-06
6.10253e-06
6.1027e-06
6.10286e-06
6.103e-06
6.10315e-06
6.10328e-06
6.10342e-06
6.10355e-06
6.10368e-06
6.10381e-06
6.10394e-06
6.10408e-06
6.10423e-06
6.10441e-06
6.10463e-06
6.10491e-06
6.10525e-06
6.10568e-06
6.1062e-06
6.10687e-06
6.10765e-06
6.10871e-06
6.10992e-06
6.11137e-06
6.11407e-06
6.11688e-06
6.10057e-06
6.10067e-06
6.10029e-06
6.0995e-06
6.09914e-06
6.09889e-06
6.09855e-06
6.09818e-06
6.09789e-06
6.09768e-06
6.09752e-06
6.09741e-06
6.09735e-06
6.09732e-06
6.09731e-06
6.09732e-06
6.09735e-06
6.0974e-06
6.09747e-06
6.09755e-06
6.09766e-06
6.0978e-06
6.09797e-06
6.09817e-06
6.09839e-06
6.09861e-06
6.09885e-06
6.0991e-06
6.09937e-06
6.09966e-06
6.09996e-06
6.10026e-06
6.10057e-06
6.10087e-06
6.10116e-06
6.10141e-06
6.10162e-06
6.10167e-06
6.10193e-06
6.10027e-06
6.10013e-06
6.10008e-06
6.10029e-06
6.10049e-06
6.10072e-06
6.101e-06
6.10126e-06
6.10152e-06
6.10177e-06
6.102e-06
6.10222e-06
6.10242e-06
6.10261e-06
6.10279e-06
6.10296e-06
6.10312e-06
6.10327e-06
6.10342e-06
6.10356e-06
6.1037e-06
6.10384e-06
6.10398e-06
6.10412e-06
6.10426e-06
6.10441e-06
6.10459e-06
6.1048e-06
6.10505e-06
6.10537e-06
6.10576e-06
6.10624e-06
6.10685e-06
6.10759e-06
6.10852e-06
6.10968e-06
6.1112e-06
6.11264e-06
6.11698e-06
6.10038e-06
6.10047e-06
6.1001e-06
6.09934e-06
6.09896e-06
6.09867e-06
6.09833e-06
6.09796e-06
6.09767e-06
6.09747e-06
6.09731e-06
6.09721e-06
6.09715e-06
6.09712e-06
6.09711e-06
6.09713e-06
6.09716e-06
6.0972e-06
6.09726e-06
6.09734e-06
6.09745e-06
6.09758e-06
6.09774e-06
6.09793e-06
6.09813e-06
6.09834e-06
6.09857e-06
6.09881e-06
6.09908e-06
6.09936e-06
6.09966e-06
6.09997e-06
6.10028e-06
6.10059e-06
6.10089e-06
6.10117e-06
6.10142e-06
6.1015e-06
6.1018e-06
6.10013e-06
6.10002e-06
6.1e-06
6.10024e-06
6.10046e-06
6.10071e-06
6.101e-06
6.10128e-06
6.10155e-06
6.10181e-06
6.10206e-06
6.10228e-06
6.1025e-06
6.10269e-06
6.10288e-06
6.10306e-06
6.10323e-06
6.10339e-06
6.10355e-06
6.10371e-06
6.10386e-06
6.10401e-06
6.10416e-06
6.1043e-06
6.10445e-06
6.1046e-06
6.10477e-06
6.10497e-06
6.10521e-06
6.10551e-06
6.10587e-06
6.10631e-06
6.10687e-06
6.10755e-06
6.10842e-06
6.10943e-06
6.11107e-06
6.11188e-06
6.11618e-06
6.1002e-06
6.10027e-06
6.09991e-06
6.09917e-06
6.09876e-06
6.09845e-06
6.09809e-06
6.09773e-06
6.09745e-06
6.09725e-06
6.0971e-06
6.097e-06
6.09694e-06
6.09691e-06
6.09691e-06
6.09692e-06
6.09695e-06
6.09699e-06
6.09705e-06
6.09712e-06
6.09722e-06
6.09734e-06
6.09749e-06
6.09767e-06
6.09786e-06
6.09806e-06
6.09828e-06
6.09851e-06
6.09877e-06
6.09904e-06
6.09934e-06
6.09965e-06
6.09996e-06
6.10029e-06
6.1006e-06
6.1009e-06
6.10119e-06
6.10131e-06
6.10168e-06
6.09999e-06
6.09991e-06
6.09992e-06
6.10019e-06
6.10043e-06
6.1007e-06
6.101e-06
6.10129e-06
6.10158e-06
6.10185e-06
6.1021e-06
6.10234e-06
6.10256e-06
6.10277e-06
6.10297e-06
6.10316e-06
6.10334e-06
6.10351e-06
6.10368e-06
6.10385e-06
6.10401e-06
6.10417e-06
6.10433e-06
6.10448e-06
6.10463e-06
6.10479e-06
6.10496e-06
6.10516e-06
6.10539e-06
6.10566e-06
6.106e-06
6.10641e-06
6.10693e-06
6.10756e-06
6.10838e-06
6.10927e-06
6.11088e-06
6.1115e-06
6.11537e-06
6.10003e-06
6.10007e-06
6.09972e-06
6.09899e-06
6.09856e-06
6.09822e-06
6.09785e-06
6.09749e-06
6.09721e-06
6.09701e-06
6.09687e-06
6.09677e-06
6.09672e-06
6.09669e-06
6.09668e-06
6.0967e-06
6.09672e-06
6.09676e-06
6.09682e-06
6.09689e-06
6.09697e-06
6.09708e-06
6.09723e-06
6.09739e-06
6.09757e-06
6.09776e-06
6.09796e-06
6.09819e-06
6.09844e-06
6.09871e-06
6.099e-06
6.0993e-06