/*--------------------------------*- C++ -*----------------------------------*\
| =========                 |                                                 |
| \\      /  F ield         | OpenFOAM: The Open Source CFD Toolbox           |
|  \\    /   O peration     | Version:  2312                                  |
|   \\  /    A nd           | Website:  www.openfoam.com                      |
|    \\/     M anipulation  |                                                 |
\*---------------------------------------------------------------------------*/
FoamFile
{
    version     2.0;
    format      ascii;
    arch        "LSB;label=32;scalar=64";
    class       volScalarField;
    location    "300";
    object      nuTilda;
}
// * * * * * * * * * * * * * * * * * * * * * * * * * * * * * * * * * * * * * //

dimensions      [0 2 -1 0 0 0 0];

internalField   nonuniform List<scalar> 
10720
(
6.29153e-05
6.61202e-05
7.02224e-05
7.53256e-05
8.16954e-05
8.97562e-05
0.000100173
0.000113497
0.00013099
0.000154102
0.000185147
0.000227493
0.000285677
0.000367581
0.000486657
0.000664786
0.000946477
0.00139571
0.00221812
0.00359001
0.0069055
0.0127141
0.0339481
0.0760711
0.0937178
0.0946332
0.0956832
0.0992244
0.102744
0.104482
0.104458
0.103209
0.100841
0.0974107
0.092792
0.0869112
0.0784487
0.0683188
0.0332573
6.00062e-05
5.73657e-05
5.46103e-05
5.19114e-05
4.91626e-05
4.63804e-05
4.36767e-05
4.15967e-05
4.34426e-05
4.7294e-05
5.28999e-05
6.05886e-05
7.10539e-05
8.55558e-05
0.000105896
0.000135056
0.000177795
0.00024219
0.000342354
0.000503134
0.00077371
0.00124196
0.00211722
0.00376917
0.00732641
0.0147198
0.0324698
0.0663113
0.093462
0.10502
0.108429
0.109371
0.109467
0.108971
0.10797
0.106573
0.104428
0.101993
0.0924566
3.80705e-05
3.78503e-05
3.76491e-05
3.74804e-05
3.72847e-05
3.71028e-05
3.69668e-05
3.68467e-05
3.67949e-05
3.68407e-05
3.69023e-05
3.75074e-05
3.96497e-05
4.43008e-05
5.39232e-05
7.20711e-05
0.000107881
0.000173937
0.000319132
0.000589849
0.00132188
0.00283124
0.00712117
0.0204936
0.0394704
0.0632569
0.0925534
0.123742
0.148781
0.162731
0.168018
0.168833
0.16724
0.163885
0.159372
0.153868
0.148555
0.139531
0.139938
3.82435e-05
3.8475e-05
3.86698e-05
3.89307e-05
3.9194e-05
3.94565e-05
3.9706e-05
3.99138e-05
3.97968e-05
3.95291e-05
3.91566e-05
3.86935e-05
3.81514e-05
3.75299e-05
3.67956e-05
3.59244e-05
3.48276e-05
3.34379e-05
3.15609e-05
2.89731e-05
2.51731e-05
1.98029e-05
1.18096e-05
4.78818e-06
7.58347e-06
0.000115446
0.000540848
0.00415513
0.0141123
0.0287154
0.0437228
0.0550585
0.0618217
0.0656038
0.0680019
0.0699924
0.0717243
0.0752964
0.0784571
4.03657e-05
4.03973e-05
4.043e-05
4.04651e-05
4.0508e-05
4.05559e-05
4.06105e-05
4.06742e-05
4.0749e-05
4.08363e-05
4.09395e-05
4.10658e-05
4.12041e-05
4.14525e-05
4.14866e-05
4.06973e-05
3.74261e-05
3.6674e-05
1.23622e-05
0.000118317
2.43443e-07
6.25912e-05
2.23949e-05
0.000557841
0.00298876
0.00756703
0.0157091
0.0310647
0.0574171
0.0938867
0.132916
0.164598
0.184988
0.196818
0.203509
0.206388
0.207631
0.201532
0.210316
4.03415e-05
4.03068e-05
4.02802e-05
4.02406e-05
4.02065e-05
4.01699e-05
4.01372e-05
4.01113e-05
4.01201e-05
4.01476e-05
4.01838e-05
4.02279e-05
4.02817e-05
4.03417e-05
4.04092e-05
4.04834e-05
4.05674e-05
4.06633e-05
4.07772e-05
4.09148e-05
4.109e-05
4.13123e-05
4.1624e-05
4.19509e-05
4.23862e-05
4.19228e-05
4.20749e-05
3.13499e-05
0.000107616
0.000790628
0.00301669
0.0075405
0.0142506
0.0224333
0.0311549
0.0396
0.047001
0.0536711
0.063164
4.00345e-05
4.003e-05
4.00289e-05
4.00296e-05
4.00313e-05
4.00362e-05
4.00453e-05
4.00578e-05
4.00764e-05
4.01016e-05
4.01348e-05
4.01781e-05
4.02344e-05
4.03056e-05
4.04006e-05
4.04911e-05
4.02859e-05
3.98372e-05
3.58509e-05
2.73713e-05
8.62472e-06
1.72347e-05
4.51132e-06
0.000114514
0.000625807
3.00435e-05
0.000226756
0.000852285
0.00418003
0.013684
0.0356935
0.0728374
0.11891
0.161419
0.193308
0.215441
0.232026
0.239215
0.255296
4.00357e-05
4.00401e-05
4.00459e-05
4.005e-05
4.0057e-05
4.00608e-05
4.00632e-05
4.00649e-05
4.00609e-05
4.0056e-05
4.00495e-05
4.00426e-05
4.00361e-05
4.00298e-05
4.00236e-05
4.00171e-05
4.00103e-05
4.00029e-05
3.99935e-05
3.9984e-05
3.9974e-05
3.99633e-05
3.99506e-05
3.99389e-05
3.99262e-05
3.99306e-05
3.9917e-05
4.00274e-05
3.98728e-05
3.97794e-05
3.8338e-05
3.60257e-05
0.000232933
0.00104725
0.0030573
0.00691938
0.0131056
0.0218239
0.0392121
4.0081e-05
4.0082e-05
4.00825e-05
4.00842e-05
4.0087e-05
4.00907e-05
4.00956e-05
4.01022e-05
4.01109e-05
4.01223e-05
4.01373e-05
4.01568e-05
4.01824e-05
4.02151e-05
4.02597e-05
4.03129e-05
4.03885e-05
4.04291e-05
4.0873e-05
4.02361e-05
3.69764e-05
2.58433e-05
8.5452e-06
3.61068e-06
0
6.32943e-06
4.85446e-05
0.000185198
0.000939416
0.000551714
0.00165625
0.00801887
0.0296027
0.070766
0.12421
0.175156
0.217275
0.248126
0.278333
4.00811e-05
4.00785e-05
4.00798e-05
4.00778e-05
4.00795e-05
4.00772e-05
4.00733e-05
4.00698e-05
4.00679e-05
4.00674e-05
4.00674e-05
4.00672e-05
4.00678e-05
4.00688e-05
4.00706e-05
4.00729e-05
4.00757e-05
4.00791e-05
4.00832e-05
4.00878e-05
4.00929e-05
4.00985e-05
4.01049e-05
4.01119e-05
4.0121e-05
4.01289e-05
4.01533e-05
4.01158e-05
4.03774e-05
3.9294e-05
4.43735e-05
2.15111e-05
6.26894e-05
0.000250921
0.000716871
0.00164868
0.000736033
0.00164104
0.0136822
4.00696e-05
4.00692e-05
4.00697e-05
4.00702e-05
4.00704e-05
4.00711e-05
4.00722e-05
4.00737e-05
4.00759e-05
4.0079e-05
4.00833e-05
4.00893e-05
4.00973e-05
4.01083e-05
4.01234e-05
4.01433e-05
4.01696e-05
4.01983e-05
4.02897e-05
4.04759e-05
4.12033e-05
4.00611e-05
3.70818e-05
1.86252e-05
7.64015e-06
5.17004e-06
2.34766e-06
0
0
0.000122287
0.000371635
0.00183026
0.000380073
0.0087472
0.0381205
0.0933781
0.160511
0.224085
0.278391
4.00688e-05
4.00675e-05
4.00692e-05
4.00688e-05
4.00719e-05
4.00714e-05
4.00689e-05
4.00666e-05
4.00648e-05
4.00637e-05
4.00629e-05
4.0062e-05
4.00615e-05
4.00612e-05
4.00612e-05
4.00612e-05
4.00615e-05
4.00618e-05
4.00623e-05
4.00628e-05
4.00632e-05
4.00634e-05
4.00635e-05
4.00629e-05
4.00628e-05
4.00633e-05
4.00641e-05
4.00674e-05
4.00667e-05
4.0084e-05
4.00524e-05
4.0218e-05
3.88157e-05
3.41793e-05
1.0025e-06
5.76617e-06
0.000174476
0.000431219
0.00237783
4.00701e-05
4.00705e-05
4.00707e-05
4.00708e-05
4.00711e-05
4.00712e-05
4.00715e-05
4.00722e-05
4.00731e-05
4.00744e-05
4.00763e-05
4.0079e-05
4.00828e-05
4.00881e-05
4.00955e-05
4.01058e-05
4.01196e-05
4.0135e-05
4.01533e-05
4.01672e-05
4.02846e-05
4.07187e-05
4.16171e-05
3.98526e-05
3.4159e-05
2.60124e-05
1.16238e-05
7.30803e-06
5.70249e-06
1.74577e-06
0
0
8.66758e-05
0.00205596
0.00168584
0.0217689
0.0782907
0.16627
0.252377
4.00692e-05
4.00672e-05
4.00679e-05
4.00674e-05
4.00704e-05
4.00703e-05
4.00681e-05
4.00659e-05
4.00643e-05
4.00633e-05
4.00627e-05
4.00623e-05
4.00621e-05
4.00622e-05
4.00621e-05
4.00621e-05
4.00624e-05
4.00629e-05
4.00635e-05
4.00643e-05
4.00652e-05
4.00663e-05
4.00675e-05
4.0069e-05
4.00708e-05
4.00732e-05
4.00763e-05
4.00801e-05
4.0085e-05
4.0091e-05
4.00974e-05
4.01051e-05
4.02006e-05
3.96344e-05
3.85604e-05
2.57372e-05
7.9239e-06
1.56214e-06
8.95551e-05
4.00693e-05
4.00695e-05
4.007e-05
4.007e-05
4.00696e-05
4.00694e-05
4.00691e-05
4.00688e-05
4.00687e-05
4.00687e-05
4.00689e-05
4.00693e-05
4.007e-05
4.00711e-05
4.00727e-05
4.00753e-05
4.0079e-05
4.00835e-05
4.00893e-05
4.00907e-05
4.00811e-05
4.01553e-05
4.04567e-05
4.12143e-05
4.13934e-05
4.04709e-05
3.79147e-05
3.34605e-05
2.76357e-05
8.34804e-06
7.15186e-06
1.53297e-06
0
0
0.000390006
0.00542884
0.0161817
0.0905067
0.200121
4.00682e-05
4.00661e-05
4.00661e-05
4.00653e-05
4.00683e-05
4.00685e-05
4.00669e-05
4.00649e-05
4.00634e-05
4.00626e-05
4.0062e-05
4.00617e-05
4.00616e-05
4.00617e-05
4.00619e-05
4.00621e-05
4.00622e-05
4.00622e-05
4.00624e-05
4.00626e-05
4.00628e-05
4.0063e-05
4.00634e-05
4.00636e-05
4.00639e-05
4.00642e-05
4.00646e-05
4.00651e-05
4.00656e-05
4.00657e-05
4.00666e-05
4.00623e-05
4.00869e-05
4.00356e-05
4.04115e-05
3.90786e-05
3.29747e-05
8.93985e-06
2.13607e-05
4.00691e-05
4.00694e-05
4.00696e-05
4.00693e-05
4.00689e-05
4.00684e-05
4.0068e-05
4.00678e-05
4.00675e-05
4.00674e-05
4.00675e-05
4.00677e-05
4.00681e-05
4.00689e-05
4.007e-05
4.00718e-05
4.00744e-05
4.00779e-05
4.00816e-05
4.00856e-05
4.00834e-05
4.00759e-05
4.00826e-05
4.0254e-05
4.06106e-05
4.10487e-05
4.15327e-05
4.15047e-05
4.12563e-05
3.76534e-05
3.2588e-05
7.20208e-06
5.7805e-06
0
0
0
0.0044317
0.0310058
0.132969
4.00681e-05
4.00657e-05
4.00651e-05
4.0064e-05
4.00668e-05
4.00673e-05
4.0066e-05
4.00643e-05
4.0063e-05
4.00621e-05
4.00617e-05
4.00614e-05
4.00613e-05
4.00615e-05
4.00616e-05
4.00619e-05
4.00622e-05
4.00624e-05
4.00626e-05
4.00626e-05
4.00627e-05
4.00629e-05
4.00632e-05
4.00636e-05
4.0064e-05
4.00646e-05
4.00655e-05
4.00668e-05
4.00683e-05
4.00703e-05
4.00728e-05
4.00755e-05
4.00798e-05
4.00773e-05
4.0143e-05
4.02656e-05
4.09856e-05
3.68275e-05
5.53377e-06
4.0069e-05
4.0069e-05
4.0069e-05
4.00685e-05
4.00679e-05
4.00674e-05
4.00668e-05
4.00664e-05
4.0066e-05
4.00657e-05
4.00654e-05
4.00652e-05
4.0065e-05
4.00649e-05
4.00649e-05
4.00649e-05
4.0065e-05
4.00651e-05
4.00655e-05
4.00671e-05
4.00688e-05
4.00685e-05
4.00652e-05
4.00636e-05
4.00994e-05
4.02024e-05
4.04082e-05
4.07663e-05
4.13479e-05
4.20076e-05
4.25239e-05
3.83002e-05
2.59512e-05
7.89624e-06
0
0
0
0.00871823
0.0716785
4.0068e-05
4.00657e-05
4.00645e-05
4.0063e-05
4.00656e-05
4.00663e-05
4.00652e-05
4.00636e-05
4.00625e-05
4.00618e-05
4.00615e-05
4.00612e-05
4.0061e-05
4.00611e-05
4.00613e-05
4.00615e-05
4.00619e-05
4.00622e-05
4.00625e-05
4.00628e-05
4.0063e-05
4.00631e-05
4.00631e-05
4.00632e-05
4.00632e-05
4.00634e-05
4.00637e-05
4.00642e-05
4.00649e-05
4.00656e-05
4.00664e-05
4.00677e-05
4.00671e-05
4.00775e-05
4.0045e-05
4.02316e-05
3.95436e-05
4.44546e-05
2.13941e-05
4.00687e-05
4.00685e-05
4.00682e-05
4.00676e-05
4.00669e-05
4.00663e-05
4.00658e-05
4.00654e-05
4.00651e-05
4.00648e-05
4.00646e-05
4.00645e-05
4.00645e-05
4.00646e-05
4.00648e-05
4.00652e-05
4.00658e-05
4.00667e-05
4.00678e-05
4.00689e-05
4.007e-05
4.00704e-05
4.0071e-05
4.00706e-05
4.00654e-05
4.00563e-05
4.00507e-05
4.00893e-05
4.02218e-05
4.06453e-05
4.13819e-05
4.27106e-05
4.2009e-05
3.3035e-05
8.67199e-06
0
0
0.000681478
0.0326316
4.00681e-05
4.00658e-05
4.00642e-05
4.00624e-05
4.00647e-05
4.00655e-05
4.00646e-05
4.00631e-05
4.00621e-05
4.00615e-05
4.00612e-05
4.00609e-05
4.00607e-05
4.00607e-05
4.00609e-05
4.00611e-05
4.00614e-05
4.00618e-05
4.00621e-05
4.00625e-05
4.00628e-05
4.0063e-05
4.00633e-05
4.00634e-05
4.00635e-05
4.00637e-05
4.00639e-05
4.00643e-05
4.00649e-05
4.00658e-05
4.00667e-05
4.00683e-05
4.00682e-05
4.00766e-05
4.00484e-05
4.01798e-05
3.96021e-05
4.19089e-05
3.65109e-05
4.00684e-05
4.00679e-05
4.00674e-05
4.00667e-05
4.0066e-05
4.00654e-05
4.00649e-05
4.00645e-05
4.00641e-05
4.00639e-05
4.00637e-05
4.00636e-05
4.00635e-05
4.00634e-05
4.00634e-05
4.00635e-05
4.00636e-05
4.00639e-05
4.00643e-05
4.0065e-05
4.00663e-05
4.00676e-05
4.00688e-05
4.00712e-05
4.00741e-05
4.00738e-05
4.00624e-05
4.0038e-05
4.00052e-05
4.00335e-05
4.01541e-05
4.07795e-05
4.20357e-05
4.29807e-05
3.56352e-05
7.83292e-06
0
0.000282509
0.0128999
4.0068e-05
4.00659e-05
4.0064e-05
4.0062e-05
4.0064e-05
4.00647e-05
4.0064e-05
4.00626e-05
4.00618e-05
4.00612e-05
4.00609e-05
4.00607e-05
4.00604e-05
4.00604e-05
4.00604e-05
4.00606e-05
4.00609e-05
4.00613e-05
4.00616e-05
4.0062e-05
4.00624e-05
4.00628e-05
4.00632e-05
4.00634e-05
4.00637e-05
4.00639e-05
4.0064e-05
4.00641e-05
4.00644e-05
4.00648e-05
4.00654e-05
4.00662e-05
4.00666e-05
4.00695e-05
4.00632e-05
4.00958e-05
3.99853e-05
4.02516e-05
4.01749e-05
4.0068e-05
4.00672e-05
4.00666e-05
4.00659e-05
4.00652e-05
4.00646e-05
4.00641e-05
4.00637e-05
4.00634e-05
4.00633e-05
4.00632e-05
4.00631e-05
4.0063e-05
4.0063e-05
4.00631e-05
4.00632e-05
4.00634e-05
4.00637e-05
4.00642e-05
4.00648e-05
4.00656e-05
4.00665e-05
4.00675e-05
4.00688e-05
4.00715e-05
4.00758e-05
4.00788e-05
4.00748e-05
4.00562e-05
4.00253e-05
3.99829e-05
3.99928e-05
4.03396e-05
4.13378e-05
4.41194e-05
3.14258e-05
1.16798e-06
9.81471e-05
0.0042746
4.00679e-05
4.0066e-05
4.00639e-05
4.00617e-05
4.00635e-05
4.00641e-05
4.00634e-05
4.00622e-05
4.00614e-05
4.00609e-05
4.00606e-05
4.00603e-05
4.00601e-05
4.006e-05
4.006e-05
4.00601e-05
4.00604e-05
4.00607e-05
4.00611e-05
4.00616e-05
4.0062e-05
4.00625e-05
4.00629e-05
4.00633e-05
4.00636e-05
4.00639e-05
4.0064e-05
4.00641e-05
4.00642e-05
4.00645e-05
4.0065e-05
4.00655e-05
4.00663e-05
4.0067e-05
4.0069e-05
4.00654e-05
4.00915e-05
3.99715e-05
4.03489e-05
4.00674e-05
4.00665e-05
4.00658e-05
4.00651e-05
4.00644e-05
4.00638e-05
4.00634e-05
4.00631e-05
4.00629e-05
4.00628e-05
4.00628e-05
4.00627e-05
4.00627e-05
4.00627e-05
4.00627e-05
4.00628e-05
4.0063e-05
4.00632e-05
4.00634e-05
4.00639e-05
4.00645e-05
4.00653e-05
4.00663e-05
4.00674e-05
4.00689e-05
4.00716e-05
4.00758e-05
4.00802e-05
4.00818e-05
4.00746e-05
4.0055e-05
4.00006e-05
3.9965e-05
4.00421e-05
4.1156e-05
4.65811e-05
1.40801e-06
2.6076e-05
0.00108199
4.00677e-05
4.0066e-05
4.00639e-05
4.00615e-05
4.0063e-05
4.00636e-05
4.0063e-05
4.00618e-05
4.00611e-05
4.00606e-05
4.00603e-05
4.006e-05
4.00597e-05
4.00596e-05
4.00596e-05
4.00597e-05
4.00599e-05
4.00603e-05
4.00606e-05
4.00611e-05
4.00616e-05
4.0062e-05
4.00625e-05
4.0063e-05
4.00634e-05
4.00637e-05
4.0064e-05
4.00641e-05
4.00642e-05
4.00643e-05
4.00645e-05
4.00649e-05
4.00654e-05
4.00658e-05
4.00678e-05
4.00641e-05
4.00835e-05
4.00253e-05
4.01457e-05
4.00668e-05
4.00658e-05
4.00651e-05
4.00644e-05
4.00638e-05
4.00632e-05
4.00628e-05
4.00626e-05
4.00625e-05
4.00625e-05
4.00625e-05
4.00625e-05
4.00626e-05
4.00627e-05
4.00627e-05
4.00628e-05
4.00629e-05
4.00631e-05
4.00633e-05
4.00637e-05
4.00641e-05
4.00647e-05
4.00655e-05
4.00665e-05
4.00676e-05
4.00692e-05
4.00718e-05
4.00755e-05
4.00801e-05
4.0084e-05
4.00852e-05
4.00784e-05
4.0019e-05
4.00761e-05
3.91971e-05
4.51755e-05
3.19037e-05
3.08627e-06
8.74804e-05
4.00673e-05
4.00659e-05
4.00638e-05
4.00614e-05
4.00626e-05
4.00631e-05
4.00625e-05
4.00615e-05
4.00608e-05
4.00602e-05
4.00599e-05
4.00597e-05
4.00594e-05
4.00592e-05
4.00592e-05
4.00593e-05
4.00595e-05
4.00598e-05
4.00601e-05
4.00606e-05
4.0061e-05
4.00616e-05
4.00621e-05
4.00626e-05
4.00631e-05
4.00635e-05
4.00638e-05
4.0064e-05
4.00641e-05
4.00642e-05
4.00643e-05
4.00645e-05
4.00649e-05
4.00653e-05
4.00663e-05
4.0066e-05
4.00705e-05
4.00639e-05
4.00736e-05
4.00662e-05
4.00652e-05
4.00644e-05
4.00638e-05
4.00632e-05
4.00627e-05
4.00624e-05
4.00623e-05
4.00623e-05
4.00624e-05
4.00624e-05
4.00625e-05
4.00626e-05
4.00627e-05
4.00628e-05
4.00629e-05
4.0063e-05
4.00631e-05
4.00633e-05
4.00636e-05
4.00639e-05
4.00644e-05
4.0065e-05
4.00658e-05
4.00668e-05
4.00681e-05
4.00699e-05
4.00723e-05
4.00755e-05
4.00798e-05
4.00834e-05
4.00954e-05
4.00632e-05
4.01815e-05
3.95363e-05
4.0714e-05
4.58491e-05
2.07376e-06
2.01497e-05
4.00669e-05
4.00658e-05
4.00638e-05
4.00613e-05
4.00622e-05
4.00627e-05
4.00621e-05
4.00612e-05
4.00605e-05
4.00599e-05
4.00596e-05
4.00594e-05
4.00591e-05
4.00589e-05
4.00588e-05
4.00589e-05
4.00591e-05
4.00593e-05
4.00597e-05
4.00601e-05
4.00606e-05
4.00611e-05
4.00616e-05
4.00622e-05
4.00627e-05
4.00632e-05
4.00636e-05
4.00639e-05
4.00641e-05
4.00642e-05
4.00643e-05
4.00644e-05
4.00646e-05
4.00649e-05
4.00654e-05
4.0066e-05
4.00664e-05
4.00708e-05
4.00651e-05
4.00656e-05
4.00646e-05
4.00638e-05
4.00632e-05
4.00627e-05
4.00622e-05
4.00621e-05
4.00621e-05
4.00622e-05
4.00623e-05
4.00625e-05
4.00626e-05
4.00627e-05
4.00628e-05
4.00629e-05
4.0063e-05
4.00631e-05
4.00633e-05
4.00634e-05
4.00636e-05
4.00639e-05
4.00643e-05
4.00648e-05
4.00654e-05
4.00663e-05
4.00674e-05
4.00689e-05
4.00707e-05
4.0073e-05
4.00761e-05
4.00788e-05
4.00873e-05
4.00834e-05
4.01053e-05
4.02308e-05
3.84533e-05
4.89802e-05
3.45827e-06
9.65242e-08
4.00664e-05
4.00656e-05
4.00637e-05
4.00612e-05
4.00619e-05
4.00623e-05
4.00617e-05
4.00608e-05
4.00601e-05
4.00596e-05
4.00593e-05
4.0059e-05
4.00587e-05
4.00586e-05
4.00585e-05
4.00585e-05
4.00587e-05
4.00589e-05
4.00593e-05
4.00597e-05
4.00601e-05
4.00606e-05
4.00612e-05
4.00618e-05
4.00623e-05
4.00628e-05
4.00633e-05
4.00636e-05
4.00639e-05
4.00641e-05
4.00642e-05
4.00643e-05
4.00644e-05
4.00646e-05
4.00649e-05
4.00655e-05
4.00657e-05
4.00692e-05
4.00668e-05
4.00651e-05
4.00641e-05
4.00632e-05
4.00627e-05
4.00622e-05
4.00619e-05
4.00619e-05
4.0062e-05
4.00622e-05
4.00624e-05
4.00625e-05
4.00627e-05
4.00629e-05
4.0063e-05
4.00631e-05
4.00632e-05
4.00633e-05
4.00634e-05
4.00636e-05
4.00638e-05
4.0064e-05
4.00643e-05
4.00647e-05
4.00653e-05
4.0066e-05
4.00669e-05
4.00682e-05
4.00698e-05
4.00717e-05
4.00741e-05
4.00769e-05
4.00788e-05
4.00948e-05
4.00293e-05
4.0448e-05
3.85358e-05
4.54869e-05
2.79957e-05
3.65242e-06
4.00659e-05
4.00653e-05
4.00636e-05
4.00611e-05
4.00616e-05
4.00619e-05
4.00614e-05
4.00605e-05
4.00598e-05
4.00593e-05
4.0059e-05
4.00587e-05
4.00584e-05
4.00582e-05
4.00582e-05
4.00582e-05
4.00583e-05
4.00586e-05
4.00589e-05
4.00593e-05
4.00597e-05
4.00602e-05
4.00608e-05
4.00613e-05
4.00619e-05
4.00624e-05
4.00629e-05
4.00634e-05
4.00637e-05
4.0064e-05
4.00642e-05
4.00643e-05
4.00643e-05
4.00644e-05
4.00646e-05
4.0065e-05
4.00654e-05
4.00677e-05
4.00673e-05
4.00645e-05
4.00635e-05
4.00627e-05
4.00622e-05
4.00619e-05
4.00618e-05
4.00618e-05
4.0062e-05
4.00622e-05
4.00624e-05
4.00626e-05
4.00628e-05
4.0063e-05
4.00631e-05
4.00633e-05
4.00634e-05
4.00635e-05
4.00636e-05
4.00637e-05
4.00639e-05
4.00641e-05
4.00644e-05
4.00647e-05
4.00651e-05
4.00657e-05
4.00665e-05
4.00676e-05
4.0069e-05
4.00707e-05
4.00726e-05
4.00758e-05
4.0075e-05
4.0095e-05
4.00255e-05
4.03253e-05
3.93895e-05
4.15299e-05
4.13941e-05
1.3118e-05
4.00654e-05
4.0065e-05
4.00634e-05
4.0061e-05
4.00613e-05
4.00615e-05
4.0061e-05
4.00602e-05
4.00595e-05
4.0059e-05
4.00587e-05
4.00584e-05
4.00581e-05
4.00579e-05
4.00579e-05
4.00579e-05
4.0058e-05
4.00583e-05
4.00585e-05
4.00589e-05
4.00593e-05
4.00598e-05
4.00604e-05
4.00609e-05
4.00615e-05
4.0062e-05
4.00626e-05
4.0063e-05
4.00634e-05
4.00638e-05
4.0064e-05
4.00642e-05
4.00643e-05
4.00643e-05
4.00645e-05
4.00647e-05
4.00651e-05
4.00669e-05
4.00668e-05
4.0064e-05
4.00631e-05
4.00623e-05
4.00619e-05
4.00617e-05
4.00616e-05
4.00618e-05
4.0062e-05
4.00623e-05
4.00625e-05
4.00627e-05
4.00629e-05
4.00631e-05
4.00633e-05
4.00634e-05
4.00636e-05
4.00637e-05
4.00638e-05
4.00639e-05
4.00641e-05
4.00643e-05
4.00645e-05
4.00648e-05
4.00651e-05
4.00656e-05
4.00663e-05
4.00673e-05
4.00684e-05
4.007e-05
4.00716e-05
4.00744e-05
4.00742e-05
4.00875e-05
4.00556e-05
4.01566e-05
4.0018e-05
3.96386e-05
4.40481e-05
2.8282e-05
4.00649e-05
4.00647e-05
4.00632e-05
4.00609e-05
4.00611e-05
4.00612e-05
4.00607e-05
4.00599e-05
4.00592e-05
4.00587e-05
4.00584e-05
4.0058e-05
4.00578e-05
4.00577e-05
4.00576e-05
4.00577e-05
4.00578e-05
4.0058e-05
4.00582e-05
4.00586e-05
4.0059e-05
4.00594e-05
4.006e-05
4.00605e-05
4.00611e-05
4.00616e-05
4.00622e-05
4.00626e-05
4.00631e-05
4.00635e-05
4.00638e-05
4.00641e-05
4.00642e-05
4.00643e-05
4.00644e-05
4.00645e-05
4.00648e-05
4.00663e-05
4.00663e-05
4.00636e-05
4.00627e-05
4.00619e-05
4.00616e-05
4.00615e-05
4.00616e-05
4.00618e-05
4.00621e-05
4.00623e-05
4.00626e-05
4.00628e-05
4.00631e-05
4.00633e-05
4.00635e-05
4.00636e-05
4.00638e-05
4.00639e-05
4.00641e-05
4.00642e-05
4.00643e-05
4.00645e-05
4.00647e-05
4.0065e-05
4.00653e-05
4.00657e-05
4.00663e-05
4.00671e-05
4.00681e-05
4.00694e-05
4.00709e-05
4.00731e-05
4.00743e-05
4.00797e-05
4.0079e-05
4.00677e-05
4.02354e-05
3.93663e-05
4.26124e-05
3.70153e-05
4.00644e-05
4.00643e-05
4.0063e-05
4.00608e-05
4.00608e-05
4.00608e-05
4.00603e-05
4.00596e-05
4.00589e-05
4.00584e-05
4.00581e-05
4.00577e-05
4.00575e-05
4.00574e-05
4.00574e-05
4.00574e-05
4.00575e-05
4.00577e-05
4.00579e-05
4.00582e-05
4.00586e-05
4.0059e-05
4.00596e-05
4.00601e-05
4.00606e-05
4.00612e-05
4.00617e-05
4.00622e-05
4.00627e-05
4.00631e-05
4.00635e-05
4.00638e-05
4.00641e-05
4.00643e-05
4.00643e-05
4.00643e-05
4.00645e-05
4.00659e-05
4.00659e-05
4.00631e-05
4.00623e-05
4.00615e-05
4.00614e-05
4.00614e-05
4.00616e-05
4.00618e-05
4.00621e-05
4.00624e-05
4.00627e-05
4.00629e-05
4.00632e-05
4.00634e-05
4.00636e-05
4.00638e-05
4.0064e-05
4.00641e-05
4.00643e-05
4.00644e-05
4.00646e-05
4.00647e-05
4.00649e-05
4.00652e-05
4.00654e-05
4.00658e-05
4.00663e-05
4.0067e-05
4.00679e-05
4.0069e-05
4.00704e-05
4.00721e-05
4.00742e-05
4.00754e-05
4.00861e-05
4.00501e-05
4.0218e-05
3.96709e-05
4.09915e-05
4.01476e-05
4.00639e-05
4.0064e-05
4.00627e-05
4.00607e-05
4.00606e-05
4.00605e-05
4.006e-05
4.00593e-05
4.00586e-05
4.00582e-05
4.00578e-05
4.00575e-05
4.00573e-05
4.00572e-05
4.00571e-05
4.00572e-05
4.00573e-05
4.00574e-05
4.00576e-05
4.00579e-05
4.00582e-05
4.00587e-05
4.00591e-05
4.00597e-05
4.00602e-05
4.00607e-05
4.00613e-05
4.00618e-05
4.00623e-05
4.00628e-05
4.00632e-05
4.00636e-05
4.00639e-05
4.00641e-05
4.00643e-05
4.00643e-05
4.00644e-05
4.00655e-05
4.00655e-05
4.00627e-05
4.0062e-05
4.00613e-05
4.00613e-05
4.00614e-05
4.00615e-05
4.00618e-05
4.00621e-05
4.00624e-05
4.00628e-05
4.00631e-05
4.00633e-05
4.00636e-05
4.00638e-05
4.0064e-05
4.00642e-05
4.00643e-05
4.00645e-05
4.00647e-05
4.00648e-05
4.0065e-05
4.00652e-05
4.00654e-05
4.00656e-05
4.0066e-05
4.00664e-05
4.0067e-05
4.00678e-05
4.00687e-05
4.007e-05
4.00714e-05
4.00736e-05
4.0074e-05
4.00838e-05
4.0061e-05
4.01456e-05
3.99571e-05
4.01918e-05
4.06343e-05
4.00635e-05
4.00636e-05
4.00625e-05
4.00605e-05
4.00603e-05
4.00602e-05
4.00596e-05
4.00589e-05
4.00583e-05
4.00579e-05
4.00575e-05
4.00572e-05
4.0057e-05
4.00569e-05
4.00569e-05
4.00569e-05
4.0057e-05
4.00571e-05
4.00573e-05
4.00576e-05
4.00579e-05
4.00583e-05
4.00587e-05
4.00592e-05
4.00598e-05
4.00603e-05
4.00608e-05
4.00613e-05
4.00619e-05
4.00624e-05
4.00628e-05
4.00632e-05
4.00636e-05
4.00639e-05
4.00642e-05
4.00642e-05
4.00643e-05
4.00652e-05
4.00652e-05
4.00624e-05
4.00617e-05
4.00611e-05
4.00612e-05
4.00613e-05
4.00615e-05
4.00618e-05
4.00622e-05
4.00625e-05
4.00629e-05
4.00632e-05
4.00635e-05
4.00637e-05
4.0064e-05
4.00642e-05
4.00644e-05
4.00646e-05
4.00647e-05
4.00649e-05
4.00651e-05
4.00653e-05
4.00654e-05
4.00656e-05
4.00659e-05
4.00662e-05
4.00666e-05
4.00671e-05
4.00678e-05
4.00686e-05
4.00697e-05
4.0071e-05
4.00729e-05
4.00738e-05
4.00795e-05
4.00731e-05
4.00964e-05
4.00861e-05
3.99896e-05
4.03997e-05
4.0063e-05
4.00632e-05
4.00622e-05
4.00603e-05
4.006e-05
4.00598e-05
4.00593e-05
4.00586e-05
4.0058e-05
4.00575e-05
4.00572e-05
4.00569e-05
4.00568e-05
4.00567e-05
4.00566e-05
4.00567e-05
4.00567e-05
4.00568e-05
4.0057e-05
4.00573e-05
4.00575e-05
4.00579e-05
4.00583e-05
4.00588e-05
4.00593e-05
4.00598e-05
4.00604e-05
4.00609e-05
4.00614e-05
4.00619e-05
4.00624e-05
4.00629e-05
4.00633e-05
4.00637e-05
4.0064e-05
4.00641e-05
4.00642e-05
4.00649e-05
4.0065e-05
4.0062e-05
4.00614e-05
4.00609e-05
4.00611e-05
4.00613e-05
4.00615e-05
4.00619e-05
4.00622e-05
4.00626e-05
4.00629e-05
4.00633e-05
4.00636e-05
4.00639e-05
4.00641e-05
4.00644e-05
4.00646e-05
4.00648e-05
4.0065e-05
4.00652e-05
4.00653e-05
4.00655e-05
4.00657e-05
4.00659e-05
4.00662e-05
4.00664e-05
4.00668e-05
4.00672e-05
4.00678e-05
4.00686e-05
4.00696e-05
4.00707e-05
4.00723e-05
4.00738e-05
4.00766e-05
4.00786e-05
4.0078e-05
4.01109e-05
4.00123e-05
4.018e-05
4.00626e-05
4.00628e-05
4.00619e-05
4.00601e-05
4.00597e-05
4.00595e-05
4.00589e-05
4.00582e-05
4.00577e-05
4.00572e-05
4.00569e-05
4.00566e-05
4.00565e-05
4.00564e-05
4.00564e-05
4.00564e-05
4.00564e-05
4.00566e-05
4.00567e-05
4.00569e-05
4.00572e-05
4.00575e-05
4.0058e-05
4.00584e-05
4.00589e-05
4.00594e-05
4.00599e-05
4.00604e-05
4.00609e-05
4.00615e-05
4.0062e-05
4.00625e-05
4.00629e-05
4.00634e-05
4.00637e-05
4.0064e-05
4.0064e-05
4.00646e-05
4.00647e-05
4.00617e-05
4.00612e-05
4.00608e-05
4.0061e-05
4.00612e-05
4.00615e-05
4.00619e-05
4.00623e-05
4.00627e-05
4.0063e-05
4.00634e-05
4.00637e-05
4.0064e-05
4.00643e-05
4.00646e-05
4.00648e-05
4.0065e-05
4.00652e-05
4.00654e-05
4.00656e-05
4.00658e-05
4.0066e-05
4.00662e-05
4.00664e-05
4.00667e-05
4.0067e-05
4.00674e-05
4.0068e-05
4.00686e-05
4.00695e-05
4.00706e-05
4.00719e-05
4.00735e-05
4.00752e-05
4.00792e-05
4.00757e-05
4.01003e-05
4.00614e-05
4.00932e-05
4.00622e-05
4.00624e-05
4.00616e-05
4.00599e-05
4.00595e-05
4.00591e-05
4.00586e-05
4.00579e-05
4.00573e-05
4.00569e-05
4.00566e-05
4.00563e-05
4.00562e-05
4.00561e-05
4.00561e-05
4.00561e-05
4.00561e-05
4.00563e-05
4.00564e-05
4.00566e-05
4.00569e-05
4.00572e-05
4.00576e-05
4.0058e-05
4.00585e-05
4.00589e-05
4.00594e-05
4.00599e-05
4.00605e-05
4.0061e-05
4.00615e-05
4.00621e-05
4.00626e-05
4.0063e-05
4.00634e-05
4.00638e-05
4.00638e-05
4.00642e-05
4.00644e-05
4.00614e-05
4.0061e-05
4.00606e-05
4.00609e-05
4.00612e-05
4.00615e-05
4.00619e-05
4.00623e-05
4.00627e-05
4.00631e-05
4.00635e-05
4.00638e-05
4.00642e-05
4.00645e-05
4.00647e-05
4.0065e-05
4.00652e-05
4.00655e-05
4.00657e-05
4.00659e-05
4.00661e-05
4.00663e-05
4.00665e-05
4.00668e-05
4.0067e-05
4.00673e-05
4.00677e-05
4.00682e-05
4.00688e-05
4.00695e-05
4.00705e-05
4.00717e-05
4.00732e-05
4.00747e-05
4.00781e-05
4.00774e-05
4.00884e-05
4.00849e-05
4.00806e-05
4.00619e-05
4.00621e-05
4.00613e-05
4.00597e-05
4.00592e-05
4.00588e-05
4.00582e-05
4.00575e-05
4.0057e-05
4.00565e-05
4.00562e-05
4.0056e-05
4.00559e-05
4.00558e-05
4.00558e-05
4.00558e-05
4.00558e-05
4.00559e-05
4.00561e-05
4.00563e-05
4.00565e-05
4.00568e-05
4.00572e-05
4.00576e-05
4.0058e-05
4.00585e-05
4.00589e-05
4.00594e-05
4.006e-05
4.00605e-05
4.00611e-05
4.00616e-05
4.00621e-05
4.00626e-05
4.00631e-05
4.00635e-05
4.00636e-05
4.00639e-05
4.00642e-05
4.00611e-05
4.00607e-05
4.00605e-05
4.00608e-05
4.00611e-05
4.00615e-05
4.00619e-05
4.00624e-05
4.00628e-05
4.00632e-05
4.00636e-05
4.0064e-05
4.00643e-05
4.00646e-05
4.00649e-05
4.00652e-05
4.00654e-05
4.00657e-05
4.00659e-05
4.00662e-05
4.00664e-05
4.00666e-05
4.00668e-05
4.00671e-05
4.00673e-05
4.00676e-05
4.0068e-05
4.00684e-05
4.0069e-05
4.00697e-05
4.00705e-05
4.00716e-05
4.0073e-05
4.00744e-05
4.00769e-05
4.00785e-05
4.00828e-05
4.00888e-05
4.0087e-05
4.00615e-05
4.00617e-05
4.0061e-05
4.00594e-05
4.00588e-05
4.00584e-05
4.00578e-05
4.00571e-05
4.00566e-05
4.00562e-05
4.00559e-05
4.00557e-05
4.00555e-05
4.00555e-05
4.00554e-05
4.00555e-05
4.00555e-05
4.00556e-05
4.00557e-05
4.00559e-05
4.00561e-05
4.00564e-05
4.00568e-05
4.00572e-05
4.00576e-05
4.0058e-05
4.00585e-05
4.00589e-05
4.00595e-05
4.006e-05
4.00605e-05
4.00611e-05
4.00617e-05
4.00622e-05
4.00627e-05
4.00631e-05
4.00634e-05
4.00636e-05
4.0064e-05
4.00609e-05
4.00605e-05
4.00604e-05
4.00607e-05
4.00611e-05
4.00615e-05
4.00619e-05
4.00624e-05
4.00629e-05
4.00633e-05
4.00637e-05
4.00641e-05
4.00645e-05
4.00648e-05
4.00651e-05
4.00654e-05
4.00657e-05
4.00659e-05
4.00662e-05
4.00664e-05
4.00667e-05
4.00669e-05
4.00672e-05
4.00674e-05
4.00677e-05
4.00679e-05
4.00683e-05
4.00687e-05
4.00692e-05
4.00698e-05
4.00706e-05
4.00716e-05
4.00728e-05
4.00743e-05
4.00762e-05
4.00785e-05
4.00812e-05
4.00862e-05
4.00913e-05
4.00611e-05
4.00613e-05
4.00606e-05
4.00592e-05
4.00585e-05
4.0058e-05
4.00574e-05
4.00567e-05
4.00562e-05
4.00558e-05
4.00555e-05
4.00553e-05
4.00552e-05
4.00551e-05
4.00551e-05
4.00551e-05
4.00552e-05
4.00553e-05
4.00554e-05
4.00556e-05
4.00558e-05
4.0056e-05
4.00563e-05
4.00567e-05
4.00571e-05
4.00575e-05
4.0058e-05
4.00584e-05
4.00589e-05
4.00595e-05
4.006e-05
4.00606e-05
4.00612e-05
4.00617e-05
4.00622e-05
4.00627e-05
4.00631e-05
4.00632e-05
4.00637e-05
4.00606e-05
4.00603e-05
4.00602e-05
4.00606e-05
4.0061e-05
4.00614e-05
4.00619e-05
4.00624e-05
4.00629e-05
4.00634e-05
4.00638e-05
4.00642e-05
4.00646e-05
4.00649e-05
4.00653e-05
4.00656e-05
4.00659e-05
4.00662e-05
4.00664e-05
4.00667e-05
4.0067e-05
4.00672e-05
4.00675e-05
4.00677e-05
4.0068e-05
4.00683e-05
4.00686e-05
4.0069e-05
4.00695e-05
4.007e-05
4.00708e-05
4.00717e-05
4.00728e-05
4.00742e-05
4.00759e-05
4.0078e-05
4.00808e-05
4.00835e-05
4.00915e-05
4.00608e-05
4.0061e-05
4.00603e-05
4.00589e-05
4.00582e-05
4.00576e-05
4.0057e-05
4.00563e-05
4.00558e-05
4.00554e-05
4.00551e-05
4.00549e-05
4.00548e-05
4.00548e-05
4.00547e-05
4.00548e-05
4.00548e-05
4.00549e-05
4.0055e-05
4.00552e-05
4.00554e-05
4.00556e-05
4.00559e-05
4.00563e-05
4.00566e-05
4.0057e-05
4.00574e-05
4.00579e-05
4.00584e-05
4.00589e-05
4.00595e-05
4.006e-05
4.00606e-05
4.00612e-05
4.00618e-05
4.00623e-05
4.00627e-05
4.00629e-05
4.00634e-05
4.00603e-05
4.00601e-05
4.00601e-05
4.00605e-05
4.0061e-05
4.00614e-05
4.0062e-05
4.00625e-05
4.0063e-05
4.00635e-05
4.00639e-05
4.00643e-05
4.00647e-05
4.00651e-05
4.00654e-05
4.00658e-05
4.00661e-05
4.00664e-05
4.00667e-05
4.0067e-05
4.00672e-05
4.00675e-05
4.00678e-05
4.00681e-05
4.00683e-05
4.00686e-05
4.00689e-05
4.00693e-05
4.00698e-05
4.00703e-05
4.0071e-05
4.00718e-05
4.00728e-05
4.00741e-05
4.00757e-05
4.00776e-05
4.00806e-05
4.00821e-05
4.00901e-05
4.00605e-05
4.00606e-05
4.00599e-05
4.00586e-05
4.00578e-05
4.00572e-05
4.00566e-05
4.00559e-05
4.00554e-05
4.0055e-05
4.00547e-05
4.00545e-05
4.00544e-05
4.00544e-05
4.00544e-05
4.00544e-05
4.00544e-05
4.00545e-05
4.00546e-05
4.00548e-05
4.00549e-05
4.00552e-05
4.00554e-05
4.00558e-05
4.00561e-05
4.00565e-05
4.00569e-05
4.00573e-05
4.00578e-05
4.00583e-05
4.00589e-05
4.00594e-05
4.006e-05
4.00606e-05
4.00612e-05
4.00618e-05
4.00623e-05
4.00625e-05
4.00632e-05
4.00601e-05
4.00599e-05
4.006e-05
4.00604e-05
4.00609e-05
4.00614e-05
4.0062e-05
4.00625e-05
4.0063e-05
4.00635e-05
4.0064e-05
4.00644e-05
4.00648e-05
4.00652e-05
4.00656e-05
4.00659e-05
4.00663e-05
4.00666e-05
4.00669e-05
4.00672e-05
4.00675e-05
4.00678e-05
4.00681e-05
4.00684e-05
4.00687e-05
4.0069e-05
4.00693e-05
4.00697e-05
4.00701e-05
4.00706e-05
4.00712e-05
4.0072e-05
4.00729e-05
4.00741e-05
4.00756e-05
4.00773e-05
4.00802e-05
4.00814e-05
4.00886e-05
4.00601e-05
4.00602e-05
4.00596e-05
4.00582e-05
4.00574e-05
4.00568e-05
4.00561e-05
4.00554e-05
4.00549e-05
4.00546e-05
4.00543e-05
4.00541e-05
4.0054e-05
4.0054e-05
4.00539e-05
4.0054e-05
4.0054e-05
4.00541e-05
4.00542e-05
4.00543e-05
4.00545e-05
4.00547e-05
4.0055e-05
4.00553e-05
4.00556e-05
4.00559e-05
4.00563e-05
4.00567e-05
4.00572e-05
4.00577e-05
4.00582e-05