/*--------------------------------*- C++ -*----------------------------------*\
| =========                 |                                                 |
| \\      /  F ield         | OpenFOAM: The Open Source CFD Toolbox           |
|  \\    /   O peration     | Version:  2312                                  |
|   \\  /    A nd           | Website:  www.openfoam.com                      |
|    \\/     M anipulation  |                                                 |
\*---------------------------------------------------------------------------*/
FoamFile
{
    version     2.0;
    format      ascii;
    arch        "LSB;label=32;scalar=64";
    class       volScalarField;
    location    "300";
    object      p;
}
// * * * * * * * * * * * * * * * * * * * * * * * * * * * * * * * * * * * * * //

dimensions      [0 2 -2 0 0 0 0];

internalField   nonuniform List<scalar> 
10720
(
-62.4006
-133.696
-217.554
-300.199
-376.563
-454.354
-523.368
-581.309
-631.642
-671.022
-701.003
-723.081
-738.384
-747.636
-751.015
-747.872
-739.115
-723.693
-703.032
-677.197
-649.55
-623.148
-600.556
-573.601
-533.358
-482.266
-429.877
-384.272
-345.025
-308.104
-271.607
-235.442
-199.653
-163.867
-127.684
-90.07
-51.5666
-6.92715
25.9994
8.97808
74.0305
143.383
208.135
263.471
305.404
330.164
338.462
336.072
323.178
302.155
278.614
255.071
232.289
210.908
190.795
172.006
154.108
136.833
119.688
102.623
85.3271
67.893
50.7327
35.7136
23.8766
14.161
6.27853
0.414155
-3.46669
-5.61228
-6.17084
-5.22509
-2.78127
1.16935
6.98041
15.2259
29.1484
52.8375
43.1286
-11.0329
-71.712
-136.157
-202.381
-270.161
-335.943
-397.648
-454.595
-505.025
-548.73
-585.716
-615.89
-639.247
-655.606
-664.666
-667.178
-663.027
-653.265
-638.439
-621.201
-603.914
-587.654
-565.252
-528.492
-479.428
-428.268
-383.203
-344.143
-307.301
-270.832
-234.704
-198.987
-163.296
-127.22
-89.7022
-51.2778
-6.62281
25.6898
91.8657
138.324
184.666
229.368
268.765
300.242
320.664
329.368
327.95
317.268
300.09
279.896
258.636
237.251
216.447
196.473
177.459
159.224
141.569
124.167
106.917
89.6148
72.3413
55.5217
40.6288
28.5894
18.7208
10.609
4.21782
-0.352604
-3.1151
-4.16416
-3.60333
-1.46539
2.24844
7.8826
15.9954
29.8392
52.5975
56.9149
8.25194
-46.5407
-107.038
-169.76
-234.046
-298.332
-359.957
-417.337
-469.475
-515.119
-553.714
-584.954
-609.032
-626.181
-636.819
-640.975
-638.712
-630.676
-617.594
-601.326
-583.908
-566.497
-544.621
-511.439
-467.325
-420.415
-377.876
-340.225
-304.409
-268.788
-233.306
-198.008
-162.57
-126.661
-89.2768
-50.9576
-6.37327
25.8119
100.828
143.492
185.928
226.106
260.816
288.437
306.866
315.792
315.959
308.028
294.081
276.468
256.972
236.762
216.647
197.064
178.213
160.058
142.457
125.166
108.053
90.9778
74.0022
57.5091
42.661
30.3614
20.2393
11.9398
5.44876
0.853775
-1.90858
-2.99617
-2.52695
-0.515166
3.06994
8.59061
16.6151
30.3245
52.2012
79.5381
38.7446
-7.85683
-59.1047
-112.908
-169.198
-226.31
-282.484
-336.395
-386.886
-432.838
-473.52
-508.468
-537.532
-560.588
-577.758
-588.593
-593.049
-591.439
-584.38
-573.16
-559.327
-543.716
-523.457
-493.615
-454.142
-411.256
-371.171
-334.937
-300.236
-265.604
-230.949
-196.325
-161.427
-125.909
-88.7965
-50.6586
-6.27397
26.0176
116.077
151.17
186.369
220.329
250.055
274.284
291.2
300.321
301.891
296.374
285.365
270.609
253.565
235.335
216.706
198.164
179.982
162.245
144.898
127.795
110.837
93.9473
77.1991
60.9508
46.1617
33.6816
23.3432
14.8232
8.078
3.16924
0.0408633
-1.41156
-1.26394
0.48895
3.88199
9.26679
17.1926
30.7289
51.7566
85.6713
49.3507
7.66378
-38.5136
-87.1272
-138.588
-191.522
-244.319
-295.968
-345.311
-391.201
-432.829
-469.516
-500.765
-526.274
-545.733
-558.893
-565.758
-566.568
-561.945
-552.906
-540.742
-526.095
-506.924
-479.411
-443.206
-403.202
-364.904
-329.721
-295.898
-262.108
-228.21
-194.245
-159.914
-124.888
-88.1972
-50.3675
-6.316
26.0814
118.286
149.441
180.775
211.003
237.481
259.337
275.177
284.418
287.089
283.612
275.137
262.979
248.28
232.002
214.896
197.468
180.057
162.84
145.851
129.033
112.329
95.7098
79.2599
63.3109
48.6547
36.0648
25.5328
16.8018
9.83309
4.69459
1.35968
-0.257247
-0.238135
1.4067
4.70536
10.0033
17.837
31.164
51.3035
89.4705
57.3144
20.2132
-20.8523
-64.0969
-110.221
-157.943
-205.983
-253.601
-299.739
-343.43
-383.904
-420.425
-452.395
-479.388
-501.027
-517.193
-527.69
-532.525
-532.062
-526.976
-518.163
-506.025
-489.085
-464.432
-431.642
-394.674
-358.411
-324.484
-291.613
-258.641
-225.448
-192.103
-158.325
-123.786
-87.545
-50.1056
-6.52934
25.9669
118.348
145.829
173.669
200.725
224.553
244.512
259.468
268.742
272.243
270.386
264.015
254.144
241.669
227.387
211.975
195.911
179.549
163.116
146.716
130.361
114.044
97.7805
81.6712
66.0313
51.5362
38.8886
28.2009
19.2934
12.1323
6.78209
3.22858
1.38842
1.18458
2.61373
5.71794
10.8476
18.5261
31.5841
50.8107
89.3953
60.3742
26.8018
-10.3917
-49.4816
-91.4016
-135.015
-179.201
-223.465
-266.869
-308.573
-347.892
-384.077
-416.479
-444.581
-467.93
-486.12
-498.884
-506.073
-507.968
-505.112
-498.21
-487.58
-472.215
-449.931
-420.227
-386.164
-351.944
-319.308
-287.407
-255.263
-222.76
-189.986
-156.717
-122.668
-86.915
-49.9363
-6.95138
25.648
115.484
140.233
165.432
190.023
211.765
230.202
244.405
253.631
257.744
257.155
252.506
244.592
234.116
221.723
207.99
193.344
178.122
162.583
146.876
131.071
115.213
99.3569
83.6241
68.3161
54.0188
41.3709
30.5687
21.5078
14.1654
8.60512
4.82743
2.76743
2.35999
3.61057
6.56577
11.5695
19.1225
31.9069
50.2435
87.7199
61.3772
30.8399
-2.96107
-38.3897
-76.5046
-116.259
-156.677
-197.436
-237.735
-276.85
-314.209
-349.122
-380.951
-409.14
-433.176
-452.598
-467.168
-476.682
-481.206
-481.041
-476.615
-468.09
-454.734
-434.946
-408.264
-377.065
-344.95
-313.714
-282.881
-251.656
-219.929
-187.796
-155.068
-121.511
-86.2676
-49.8411
-7.5661
25.073
111.436
133.886
156.872
179.414
199.42
216.595
230.122
239.229
243.791
244.181
240.92
234.65
225.929
215.275
203.165
189.959
175.965
161.44
146.557
131.427
116.136
100.772
85.4762
70.5389
56.4849
43.8972
33.0295
23.8492
16.3518
10.6033
6.61997
4.35287
3.74499
4.80561
7.58751
12.4299
19.8126
32.2558
49.6743
84.8278
60.7066
32.7118
1.74818
-30.6048
-65.4699
-101.901
-139.018
-176.639
-214.071
-250.706
-286.083
-319.579
-350.599
-378.592
-403.023
-423.397
-439.346
-450.586
-457.011
-458.787
-456.208
-449.366
-437.739
-420.159
-396.205
-367.688
-337.649
-307.852
-278.128
-247.856
-216.942
-185.492
-153.349
-120.311
-85.5857
-49.7576
-8.27901
24.2227
106.576
127.131
148.279
169.103
187.645
203.751
216.66
225.601
230.477
231.621
229.473
224.568
217.362
208.267
197.672
185.869
173.123
159.671
145.69
131.317
116.666
101.855
87.0399
72.5056
58.7313
46.2538
35.3637
26.0936
18.4618
12.539
8.3562
5.88174
5.07049
5.93963
8.54884
13.2305
20.439
32.5229
49.0455
81.283
59.0688
33.2688
4.76792
-24.916
-56.9308
-90.3966
-124.519
-159.219
-193.886
-228.024
-261.264
-293.055
-322.877
-350.203
-374.493
-395.241
-412.037
-424.579
-432.653
-436.265
-435.542
-430.474
-420.661
-405.252
-383.89
-357.96
-330
-301.701
-273.136
-243.856
-213.791
-183.058
-151.535
-119.053
-84.8735
-49.6574
-9.03199
23.1468
101.347
120.286
139.865
159.215
176.5
191.671
204.014
212.757
217.838
219.559
218.3
214.52
208.603
200.883
191.674
181.204
169.692
157.344
144.324
130.78
116.842
102.649
88.3685
74.2795
60.8289
48.5166
37.6556
28.3338
20.5964
14.5217
10.1554
7.48445
6.47535
7.15168
9.58048
14.0852
21.0936
32.7708
48.3863
77.3525
56.7843
32.886
6.52091
-20.8425
-50.3653
-81.2207
-112.686
-144.741
-176.857
-208.631
-239.779
-269.818
-298.297
-324.737
-348.627
-369.458
-386.799
-400.287
-409.632
-414.696
-415.507
-411.995
-403.844
-390.432
-371.461
-347.971
-322.055
-295.283
-267.917
-239.664
-210.482
-180.5
-149.63
-117.739
-84.1394
-49.5359
-9.83373
21.9111
95.9615
113.511
131.733
149.807
165.996
180.337
192.148
200.674
205.877
208.035
207.483
204.628
199.801
193.278
185.315
176.086
165.763
154.512
142.483
129.815
116.645
103.124
89.4227
75.8161
62.729
50.6308
39.8463
30.509
22.6929
16.4866
11.9503
9.0895
7.88497
8.36762
10.6126
14.9326
21.7265
32.9706
47.6916
73.2398
54.1145
31.8874
7.40091
-17.9255
-45.2463
-73.779
-102.857
-132.51
-162.27
-191.807
-220.909
-249.162
-276.184
-301.546
-324.771
-345.377
-362.919
-377.005
-387.32
-393.599
-395.777
-393.725
-387.169
-375.645
-358.906
-337.727
-313.815
-288.598
-262.47
-235.279
-207.018
-177.821
-147.638
-116.371
-83.3919
-49.4117
-10.7005
20.542
90.5777
106.915
123.947
140.893
156.119
169.711
181.02
189.32
194.578
197.062
197.072
194.974
191.063
185.574
178.718
170.624
161.422
151.244
140.209
128.445
116.086
103.281
90.2026
77.118
64.4351
52.5997
41.9407
32.6281
24.7649
18.4516
13.7635
10.7247
9.33113
9.62051
11.6764
15.7992
22.3574
33.1348
46.9664
69.0745
51.2223
30.4762
7.65371
-15.871
-41.2365
-67.6993
-94.6352
-122.116
-149.723
-177.178
-204.334
-230.834
-256.361
-280.544
-302.948
-323.122
-340.627
-355.045
-366.051
-373.288
-376.608
-375.844
-370.748
-360.965
-346.285
-327.275
-305.309
-281.657
-256.799
-230.703
-203.395
-175.02
-145.558
-114.949
-82.6307
-49.3061
-11.6333
19.0451
85.2852
100.557
116.531
132.473
146.84
159.751
170.585
178.65
183.916
186.638
187.093
185.613
182.47
177.868
171.984
164.915
156.756
147.603
137.549
126.698
115.174
103.118
90.6983
78.1719
65.9315
54.4037
43.9171
34.6694
26.7907
20.3957
15.5745
12.3695
10.793
10.89
12.753
16.6688
22.9742
33.2592
46.2132
64.9429
48.225
28.8028
7.467
-14.4507
-38.0687
-62.6777
-87.686
-113.199
-138.837
-164.363
-189.678
-214.484
-238.515
-261.458
-282.927
-302.497
-319.754
-334.271
-345.718
-353.692
-357.966
-358.34
-354.582
-346.406
-333.627
-316.648
-296.562
-274.474
-250.909
-225.935
-199.613
-172.094
-143.389
-113.473
-81.8523
-49.2263
-12.6291
17.4351
80.147
94.4681
109.498
124.535
138.129
150.412
160.797
168.623
173.858
176.752
177.556
176.582
174.08
170.235
165.199
159.047
151.844
143.657
134.551
124.606
113.927
102.643
90.9105
78.9744
67.2121
56.0344
45.7658
36.624
28.7635
22.3145
17.3812
14.0245
12.2734
12.1806
13.8471
17.5452
23.5793
33.3475
45.4359
60.9007
45.2031
26.9721
6.97433
-13.5024
-35.5508
-58.4887
-81.7598
-105.486
-129.321
-153.066
-176.66
-199.85
-222.422
-244.106
-264.567
-283.418
-300.27
-314.704
-326.385
-334.893
-339.934
-341.288
-338.728
-332.015
-320.977
-305.888
-287.602
-267.064
-244.809
-220.98
-195.671
-169.04
-141.128
-111.941
-81.0553
-49.1676
-13.6851
15.7245
75.2002
88.6663
102.843
117.061
129.951
141.653
151.611
159.197
164.374
167.383
168.461
167.897
165.931
162.731
158.433
153.095
146.76
139.471
131.267
122.204
112.367
101.866
90.8422
79.5225
68.2699
57.481
47.4734
38.478
30.6702
24.1956
19.1727
15.68
13.7638
13.4845
14.9519
18.4226
24.1685
33.4001
44.6382
56.9851
42.2125
25.0604
6.27456
-12.9024
-33.5307
-54.9564
-76.6539
-98.7554
-120.941
-143.047
-165.038
-186.699
-207.858
-228.294
-247.708
-265.759
-282.085
-296.287
-308.02
-316.886
-322.53
-324.711
-323.212
-317.82
-308.369
-295.032
-278.462
-259.448
-238.508
-215.842
-191.571
-165.861
-138.775
-110.352
-80.2393
-49.1269
-14.7948
13.9195
70.4655
83.1581
96.5578
110.028
122.271
133.434
142.989
150.333
155.429
158.512
159.803
159.573
158.052
155.401
151.741
147.12
141.566
135.102
127.746
119.532
110.521
100.803
90.4993
79.8168
69.1021
58.7366
49.0299
40.2203
32.5
26.0294
20.941
17.33
15.2597
14.7986
16.0649
19.2991
24.7407
33.4195
43.8243
53.221
39.2903
23.1209
5.4401
-12.5579
-31.895
-51.9484
-72.214
-92.834
-113.514
-134.11
-154.609
-174.832
-194.642
-213.854
-232.214
-249.415
-265.129
-278.981
-290.624
-299.69
-305.783
-308.648
-308.071
-303.858
-295.846
-284.122
-269.174
-251.646
-232.019
-210.528
-187.317
-162.556
-136.33
-108.707
-79.404
-49.1018
-15.9501
12.0266
65.9537
77.9429
90.6309
103.413
115.061
125.718
134.888
141.995
146.993
150.115
151.569
151.609
150.46
148.274
145.165
141.174
136.317
130.606
124.039
116.631
108.42
99.4748
89.8937
79.8619
69.7068
59.7951
50.4257
41.8395
34.2415
27.8053
22.6765
18.966
16.754
16.1172
17.1813
20.1709
25.2937
33.4076
42.998
49.6225
36.4621
21.1958
4.52386
-12.3958
-30.5571
-49.3564
-68.3169
-87.5824
-106.881
-126.085
-145.204
-164.081
-182.611
-200.642
-217.954
-234.28
-249.321
-262.731
-274.17
-283.299
-289.707
-293.121
-293.333
-290.162
-283.445
-273.199
-259.774
-243.684
-225.359
-205.049
-182.914
-159.128
-133.793
-107.005
-78.5479
-49.0915
-17.142
10.0568
61.6686
73.013
85.0456
97.1926
108.288
118.471
127.275
134.145
139.035
142.17
143.746
144.005
143.166
141.375
138.74
135.299
131.063
126.031
120.192
113.54
106.095
97.9033
89.0398
79.6652
70.0861
60.6533
51.6534
43.3258
35.884
29.5128
24.3696
20.58
18.2398
17.435
18.2968
21.035
25.826
33.367
42.1642
46.1965
33.7459
19.3099
3.56829
-12.3651
-29.4465
-47.0979
-64.8616
-82.8875
-100.917
-118.84
-136.679
-154.301
-171.622
-188.52
-204.807
-220.25
-234.581
-247.483
-258.631
-267.707
-274.31
-278.151
-279.025
-276.762
-271.2
-262.3
-250.298
-235.589
-218.544
-199.414
-178.367
-155.579
-131.165
-105.246
-77.6698
-49.0943
-18.3618
8.02209
57.6098
68.3598
79.7861
91.3447
101.922
111.659
120.115
126.752
131.525
134.651
136.317
136.753
136.172
134.716
132.49
129.529
125.842
121.422
116.247
110.298
103.579
96.1132
87.9535
79.2361
70.2443
61.3103
52.7075
44.6707
37.4175
31.1414
26.0104
22.163
19.7097
18.7456
19.4064
21.8875
26.3358
33.3003
41.3275
42.9466
31.1526
17.4844
2.60133
-12.4228
-28.5116
-45.1061
-61.7721
-78.6582
-95.5202
-112.26
-128.914
-145.364
-161.547
-177.367
-192.662
-207.23
-220.833
-233.181
-243.97
-252.899
-259.595
-263.751
-265.167
-263.687
-259.146
-251.464
-240.781
-227.389
-211.595
-193.637
-173.686
-151.914
-128.448
-103.429
-76.768
-49.1071
-19.6007
5.9355
53.7731
63.9732
74.8364
85.8469
95.9399
105.254
113.378
119.787
124.437
127.538
129.268
129.846
129.48
128.309
126.434
123.891
120.689
116.815
112.243
106.943
100.904
94.1316
86.6558
78.5886
70.1881
61.767
53.5843
45.8668
38.8327
32.6813
27.5891
23.706
21.1557
20.0424
20.5047
22.7249
26.8217
33.2101
40.4922
39.8722
28.6879
15.7331
1.64632
-12.5381
-27.7094
-43.3298
-58.9838
-74.8194
-90.6051
-106.255
-121.809
-137.169
-152.286
-167.084
-181.426
-195.136
-208.004
-219.768
-230.148
-238.855
-245.554
-249.926
-251.776
-250.961
-247.316
-240.729
-231.261
-219.115
-204.535
-187.734
-168.88
-148.138
-125.644
-101.555
-75.84
-49.1257
-20.8494
3.81135
50.1539
59.842
70.1799
80.6776
90.3151
99.2309
107.036
113.223
117.746
120.809
122.582
123.274
123.087
122.157
120.585
118.406
115.629
112.243
108.214
103.509
98.1028
91.9857
85.1684
77.7375
69.9261
62.0268
54.282
46.9086
40.1215
34.123
29.096
25.1998
22.5695
21.3184
21.5862
23.5432
27.2825
33.0992
39.6629
36.9712
26.3551
14.0644
0.719031
-12.6862
-27.0075
-41.7258
-56.4451
-71.3085
-86.1004
-100.741
-115.278
-129.624
-143.743
-157.577
-171.007
-183.885
-196.024
-207.189
-217.123
-225.551
-232.178
-236.679
-238.865
-238.605
-235.739
-230.128
-221.773
-210.797
-197.386
-181.722
-163.959
-144.258
-122.757
-99.6239
-74.8841
-49.1455
-22.0977
1.66454
46.7442
55.9547
65.8004
75.8168
85.0253
93.5637
101.064
107.035
111.428
114.444
116.243
117.025
116.987
116.263
114.95
113.088
110.686
107.731
104.192
100.028
95.2053
89.7026
83.5127
76.6991
69.47
62.0956
54.8014
47.7922
41.277
35.4577
30.5217
26.6351
23.9428
22.5662
22.6451
24.3387
27.7168
32.9703
38.8443
34.2398
24.1542
12.4847
-0.168394
-12.8502
-26.38
-40.2614
-54.1138
-68.0785
-81.9488
-95.6554
-109.248
-122.65
-135.836
-148.763
-161.329
-173.405
-184.829
-195.39
-204.854
-212.961
-219.452
-224.008
-226.444
-226.638
-224.44
-219.694
-212.351
-202.468
-190.175
-175.619
-158.939
-140.282
-119.789
-97.6372
-73.8974
-49.1611
-23.3365
-0.490817
43.5357
52.3003
61.6839
71.2464
80.0503
88.2304
95.439
101.198
105.461
108.422
110.234
111.086
111.173
110.625
109.536
107.949
105.875
103.303
100.201
96.5261
92.2399
87.3092
81.7124
75.4926
68.8328
61.981
55.1451
48.5155
42.2935
36.6779
31.8571
28.0027
25.2668
23.7782
23.6752
25.1073
28.1236
32.826
38.0402
31.6727
22.0842
10.9969
-1.00803
-13.0144
-25.8069
-38.9092
-51.9564
-65.0859
-78.1032
-90.9432
-103.659
-116.182
-128.497
-140.571
-152.318
-163.628
-174.356
-184.316
-193.296
-201.054
-207.358
-211.905
-214.514
-215.073
-213.443
-209.457
-203.028
-194.16
-182.928
-169.447
-153.832
-136.22
-116.748
-95.5956
-72.8779
-49.1661
-24.5548
-2.6392
40.5207
48.8661
57.8153
66.9501
75.3709
83.2096
90.1382
95.6923
99.8259
102.727
104.541
105.448
105.638
105.238
104.344
102.997
101.21
98.9764
96.2638
93.0301
89.2325
84.8306
79.7907
74.1371
68.0292
61.6925
55.3169
49.0785
43.1673
37.7765
33.0941
29.2938
26.533
24.9465
24.6705
25.8451
28.5017
32.6685
37.2548
29.2635
20.1427
9.60245
-1.79447
-13.1683
-25.2722
-37.647
-49.9441
-62.2975
-74.5215
-86.5563
-98.4571
-110.163
-121.665
-132.939
-143.913
-154.492
-164.549
-173.919
-182.409
-189.798
-195.876
-200.361
-203.076
-203.921
-202.767
-199.444
-193.835
-185.901
-175.672
-163.225
-148.656
-132.083
-113.636
-93.501
-71.8222
-49.1542
-25.7425
-4.76567
37.6903
45.6417
54.1807
62.9104
70.9679
78.4816
85.1422
90.4982
94.5033
97.3399
99.1465
100.096
100.372
100.1
99.3725
98.2341
96.7003
94.7645
92.3983
89.5606
86.2066
82.2903
77.7692
72.6517
67.0743
61.2412
55.3236
49.4825
43.8957
38.7486
34.2251
30.4998
27.7329
26.0635
25.6247
26.548
28.8503
32.5001
36.4915
27.0064
18.3264
8.30104
-2.52428
-13.305
-24.7638
-36.4583
-48.0552
-59.685
-71.1701
-82.4565
-93.5984
-104.542
-115.286
-125.811
-136.056
-145.942
-155.356
-164.15
-172.153
-179.161
-184.983
-189.364
-192.13
-193.19
-192.43
-189.679
-184.8
-177.721
-168.432
-156.977
-143.426
-127.88
-110.463
-91.354
-70.7286
-49.1175
-26.889
-6.85498
35.0362
42.6158
50.7668
59.1122
66.825
74.0291
80.4319
85.5966
89.4751
92.2448
94.0375
95.0181
95.3662
95.2036
94.6206
93.6637
92.3508
90.6778
88.6193
86.136
83.1827
79.7099
75.6691
71.0551
65.9843
60.639
55.1727
49.7308
44.4779
39.5895
35.2437
31.613
28.8584
27.1215
26.5314
27.2121
29.1683
32.3227
35.7533
24.8952
16.6306
7.09175
-3.19527
-13.4185
-24.2715
-35.3288
-46.2709
-57.2248
-68.0206
-78.6097
-89.0451
-99.2797
-109.315
-119.139
-128.7
-137.928
-146.728
-154.966
-162.489
-169.112
-174.656
-178.898
-181.667
-182.881
-182.442
-180.183
-175.951
-169.65
-161.237
-150.726
-138.162
-123.627
-107.234
-89.1588
-69.5937
-49.0494
-27.9852
-8.8919
32.5493
39.7776
47.5612
55.5423
62.9267
69.8359
75.9912
80.9703
84.7248
87.426
89.1994
90.2028
90.6103
90.5411
90.0838
89.2855
88.1664
86.725
84.9389
82.7715
80.1785
77.1094
73.5107
69.3672
64.7759
59.8991
54.8731
49.8283
44.9147
40.2966
36.1444
32.6264
29.9019
28.1131
27.3847
27.8334
29.4547
32.1375
35.0426
22.9229
15.0515
5.97178
-3.8063
-13.5051
-23.7883
-34.247
-44.5766
-54.8978
-65.0501
-74.9885
-84.7659
-94.3382
-103.713
-112.88
-121.798
-130.407
-138.622
-146.325
-153.379
-159.617
-164.871
-168.948
-171.68
-172.997
-172.814
-170.972
-167.311
-161.713
-154.112
-144.494
-132.881
-119.336
-103.958
-86.9163
-68.4158
-48.9433
-29.0203
-10.8626
30.2212
37.117
44.5524
52.1867
59.2585
65.8863
71.8038
76.6037
80.2366
82.8685
84.6189
85.6379
86.0951
86.1059
85.7575
85.0977
84.1485
82.911
81.3659
79.4795
77.2095
74.5061
71.3126
67.6054
63.4651
59.0349
54.4351
49.781
45.2082
40.8686
36.9233
33.5336
30.856
29.0314
28.1788
28.4081
29.7083
31.9458
34.3611
21.0828
13.5838
4.93894
-4.35792
-13.5623
-23.3091
-33.2047
-42.9589
-52.6877
-62.2383
-71.5682
-80.7312
-89.6865
-98.443
-106.997
-115.312
-123.337
-130.998
-138.19
-144.789
-150.645
-155.603
-159.495
-162.16
-163.536
-163.553
-162.062
-158.899
-153.934
-147.083
-138.305
-127.604
-115.021
-100.645
-84.6307
-67.1924
-48.7898
-29.9859
-12.7537
28.044
34.6243
41.7288
49.0329
55.8066
62.1654
67.8551
72.4815
75.996
78.5585
80.2826
81.3115
81.8098
81.8898
81.6357
81.097
80.2968
79.2387
77.9066
76.27
74.2892
71.9153
69.0909
65.7864
62.0674
58.06
53.8693
49.5963
45.3622
41.3057
37.577
34.3299
31.7147
29.8698
28.9079
28.9324
29.9281
31.7482
33.71
19.3686
12.2224
3.99018
-4.85126
-13.5885
-22.8287
-32.1943
-41.4076
-50.5804
-59.5672
-68.3286
-76.9172
-85.2962
-93.4761
-101.457
-109.207
-116.683
-123.819
-130.524
-136.685
-142.168
-146.828
-150.52
-153.093
-154.493
-154.663
-153.464
-150.734
-146.336
-140.171
-132.181
-122.347
-110.697
-97.3013
-82.3059
-65.9217
-48.5839
-30.872
-14.5528
26.0094
32.2899
39.08
46.0696
52.5586
58.66
64.1311
68.5899
71.9892
74.4824
76.178
77.2124
77.7442
77.8839
77.7123
77.2796
76.6104
75.7099
74.5657
73.1506
71.4276
69.3499
66.8607
63.9258
60.5983
56.9883
53.1873
49.2825
45.3814
41.6093
38.1045
35.0112
32.4726
30.6224
29.5671
29.403
30.1129
31.5448
33.0895
17.7736
10.9627
3.12185
-5.2876
-13.5831
-22.345
-31.2106
-39.915
-48.5655
-57.0238
-65.2527
-73.3042
-81.1447
-88.7855
-96.23
-103.451
-110.412
-117.054
-123.295
-129.037
-134.156
-138.522
-142.006
-144.467
-145.861
-146.143
-145.185
-142.831
-138.938
-133.399
-126.142
-117.132
-106.378
-93.9394
-79.9454
-64.6029
-48.3185
-31.6715
-16.249
24.1099
30.1054
36.596
43.2856
49.5025
55.3576
60.6183
64.9163
68.2035
70.6282
72.2932
73.3291
73.889
74.0796
73.9801
73.6402
73.086
72.3244
71.346
70.127
68.6336
66.8213
64.6349
62.0377
59.0719
55.8332
52.4005
48.8488
45.2721
41.7822
38.5052
35.5747
33.1254
31.2843
30.1516
29.8165
30.2614
31.3356
32.4993
16.2916
9.79928
2.33048
-5.66903
-13.5464
-21.8559
-30.2494
-38.4746
-46.6342
-54.5959
-62.3261
-69.8746
-77.2112
-84.3482
-91.2913
-98.0171
-104.494
-110.671
-116.474
-121.816
-126.584
-130.66
-133.931
-136.268
-137.633
-137.993
-137.232
-135.2
-131.755
-126.786
-120.208
-111.975
-102.08
-90.5682
-77.5543
-63.2356
-47.988
-32.377
-17.8327
22.3379
28.0625
34.2674
40.6702
46.6273
52.2464
57.3052
61.448
64.6262
66.9835
68.6171
69.6514
70.2341
70.4686
70.4318
70.1736
69.7202
69.0811
68.2489
67.2031
65.9135
64.3384
62.425
60.135
57.5015
54.6075
51.5207
48.3046
45.041
41.8284
38.7805
36.0193
33.6698
31.8513
30.6576
30.17
30.3723
31.1198
31.9384
14.9163
8.72713
1.61234
-5.99776
-13.4787
-21.3597
-29.3072
-37.08
-44.7773
-52.2725
-59.535
-66.6127
-73.478
-80.1443
-86.6183
-92.8807
-98.9039
-104.643
-110.033
-114.994
-119.427
-123.22
-126.278
-128.481
-129.8
-130.209
-129.607
-127.85
-124.803
-120.348
-114.398
-106.894
-97.8165
-87.1982
-75.1379
-61.819
-47.5878
-32.9818
-19.2948
20.6864
26.1528
32.0851
38.2139
43.9224
49.3155
54.1804
58.1732
61.2463
63.5373
65.1386
66.1685
66.7696
67.0421
67.0601
66.8735
66.509
65.9772
65.2739
64.3813
63.2723
61.9087
60.2404
58.2287
55.8991
53.3233
50.5591
47.66
44.6958
41.7531
38.9325
36.3447
34.1038
32.3204
31.0817
30.4608
30.4442
30.8963
31.4049
13.6417
7.74133
0.96357
-6.27622
-13.381
-20.8563
-28.3814
-35.7276
-42.9886
-50.0453
-56.8686
-63.5049
-69.9289
-76.1549
-82.1908
-88.0198
-93.6183
-98.9474
-103.948
-108.548
-112.66
-116.181
-119.027
-121.091
-122.35
-122.787
-122.311
-120.789
-118.091
-114.102
-108.728
-101.904
-93.6018
-83.8398
-72.7016
-60.3552
-47.1134
-33.4809
-20.6286
19.1486
24.3687
30.0407
35.9076
41.3781
46.5546
51.2328
55.0813
58.0524
60.2783
61.8468
62.8703
63.4861
63.7913
63.8574
63.7335
63.4471
63.01
62.4201
61.6626
60.7135
59.5378
58.0887
56.3283
54.2755
51.9921
49.5269
46.9248
44.245
41.5622
38.965
36.5521
34.4267
32.6896
31.4214
30.6869
30.4756
30.6638
30.8965
12.4623
6.83694
0.380365
-6.50711
-13.2548
-20.3451
-27.4707
-34.4135
-41.2636
-47.9072
-54.3179
-60.5403
-66.5513
-72.3652
-77.9911
-83.4148
-88.616
-93.5601
-98.1944
-102.455
-106.261
-109.522
-112.16
-114.084
-115.273
-115.719
-115.342
-114.021
-111.63
-108.058
-103.212
-97.0218
-89.4494
-80.5033
-70.2517
-58.8449
-46.5632
-33.8705
-21.8284
17.7177
22.7029
28.1262
33.7424
38.985
43.9535
48.4526
52.1621
55.0343
57.1964
58.732
59.7471
60.3747
60.708
60.8161
60.7472
60.5295
60.1757
59.6854
59.0469
58.239
57.2302
55.9769
54.4423
52.6406
50.6242
48.4347
46.109
43.697
41.2624
38.8825
36.6439
34.6389
32.958
31.6748
30.8465
30.4651
30.4205
30.4103
11.3721
6.00932
-0.141142
-6.69312
-13.1014
-19.8264
-26.5733
-33.1348
-39.5973
-45.8517
-51.8746
-57.7086
-63.3324
-68.7609
-74.0037
-79.0486
-83.878
-88.4617
-92.7525
-96.693
-100.21
-103.222
-105.66
-107.443
-108.556
-108.997
-108.697
-107.545
-105.424
-102.227
-97.8633
-92.2592
-85.3713
-77.1985
-67.7947
-57.2908
-45.9357
-34.1477
-22.8902
16.3878
21.1485
26.3339
31.7103
36.7344
41.5034
45.83
49.4053
52.1821
54.282
55.7846
56.7901
57.4264
57.7836
57.9284
57.9079
57.7506
57.4698
57.0672
56.5334
55.8499
54.9886
53.9097
52.5778
51.0026
49.2292
47.2923
45.2223
43.0607
40.8614
38.6905
36.6237
34.742
33.1258
31.8414
30.9384
30.4116
30.1644
29.9429
10.3661
5.25382
-0.604704
-6.83713
-12.9227
-19.3009
-25.6889
-31.8897
-37.9858
-43.8738
-49.5316
-55.0011
-60.2619
-65.3296
-70.2141
-74.9051
-79.3872
-83.6339
-87.6029
-91.2429
-94.4876
-97.2631
-99.5077
-101.153
-102.186
-102.612
-102.372
-101.363
-99.4778
-96.6168
-92.6913
-87.6277
-81.3787
-73.935
-65.3368
-55.6963
-45.2302
-34.3112
-23.8115
15.1527
19.699
24.6568
29.8034
34.6181
39.1954
43.3562
46.8022
49.4865
51.5257
52.9952
53.9899
54.6326
55.0103
55.1868
55.2088
55.1044
54.8878
54.5622
54.1203
53.5463
52.8155
51.8912
50.7404
49.369
47.8155
46.109
44.2741
42.345
40.3667
38.3954
36.4961
34.7388
33.1943
31.9211
30.962
30.3138
29.8934
29.4908
9.4391
4.56604
-1.01397
-6.94172
-12.7204
-18.7692
-24.8168
-30.6761
-36.4259
-41.9684
-47.2832
-52.4101
-57.3309
-62.0608
-66.6103
-70.9704
-75.1283
-79.0602
-82.7282
-86.0862
-89.0751
-91.6274
-93.6882
-95.1993
-96.1515
-96.5547
-96.3583
-95.4705
-93.7926
-91.2319
-87.7041
-83.1374
-77.4819
-70.7216
-62.8849
-54.0653
-44.4484
-34.3606
-24.5911
14.0066
18.3481
23.0878
28.0142
32.6281
37.0215
41.0225
44.3439
46.9386
48.9187
50.3551
51.3378
51.9849
52.3798
52.584
52.6432
52.5851
52.4248
52.1666
51.8053
51.3277
50.7116
49.9243
48.9347
47.7461
46.3908
44.8934
43.2734
41.5588
39.7866
38.0042
36.2664
34.6333
33.1657
31.9149
30.9172
30.1709
29.6053
29.05
8.58619
3.94148
-1.37248
-7.00974
-12.4966
-18.2319
-23.9567
-29.4927
-34.9156
-40.1321
-45.1238
-49.929
-54.5308
-58.9448
-63.181
-67.2322
-71.0873
-74.7254
-78.1124
-81.2069
-83.9556
-86.2979
-88.1847
-89.5669
-90.4387
-90.8141
-90.65
-89.8646
-88.3682
-86.0757
-82.9078
-78.7961
-73.6895
-67.5668
-60.4459
-52.4022
-43.5924
-34.2976
-25.2298
12.9442
17.0897
21.6208
26.3359
30.7572
34.9737
38.8211
42.0221
44.5302
46.4525
47.8561
48.826
49.4753
49.8846
50.1127
50.2042
50.1868
50.0757
49.8765
49.5857
49.1924
48.6773
48.0111
47.1647
46.1391
44.9619
43.6531
42.2285
40.7105
39.1294
37.5243
35.9409
34.4301
33.0434
31.8247
30.8045
29.9821
29.2979
28.6166
7.80265
3.3762
-1.68382
-7.04399
-12.2529
-17.6904
-23.1087
-28.3385
-33.4521
-38.3612
-43.0486
-47.5516
-51.8545
-55.9725
-59.916
-63.6787
-67.2516
-70.6156
-73.7406
-76.5892
-79.1134
-81.2591
-82.9821
-84.2415
-85.0348
-85.3789
-85.2381
-84.5396
-83.2025
-81.1492
-78.3066
-74.6099
-70.0087
-64.478
-58.0262
-50.7125
-42.6658
-34.1245
-25.7293
11.9604
15.9183
20.2494
24.762
28.9984
33.045
36.7443
39.8291
42.2534
44.1192
45.4901
46.4463
47.0962
47.5173
47.7659
47.8855
47.9035
47.8353
47.6876
47.4585
47.1389
46.7124
46.1527
45.433
44.5526
43.5345
42.3954
41.1475
39.8087
38.4034
36.9634
35.5265
34.1349
32.8315
31.6533
30.6253
29.7472
28.9692
28.1866
7.08403
2.86615
-1.95126
-7.04713
-11.9916
-17.1457
-22.2729
-27.2128
-32.0338
-36.6529
-41.054
-45.2729
-49.2953
-53.1363
-56.8061
-60.2997
-63.6094
-66.7182
-69.5992
-72.2187
-74.5337
-76.4957
-78.0654
-79.2087
-79.9264
-80.2378
-80.1135
-79.4886
-78.2915
-76.4515
-73.9023
-70.5833
-66.4458
-61.4619
-55.6326
-49.0018
-41.6733
-33.8454
-26.0927
11.0501
14.8285
18.9681
23.2863
27.3451
31.2282
34.7848
37.7575
40.1005
41.9112
43.2496
44.1913
44.8402
45.2707
45.5368
45.6807
45.7294
45.6986
45.5958
45.4202
45.165
44.8159
44.3496
43.7419
42.9903
42.1138
41.1265
40.0376
38.8612
37.6166
36.3295
35.0305
33.7538
32.5348
31.404
30.3813
29.4662
28.6172
27.7563
6.42598
2.40758
-2.17807
-7.02175
-11.7142
-16.599
-21.4497
-26.1148
-30.6594
-35.0046
-39.1361
-43.088
-46.8474
-50.4289
-53.8432
-57.0858
-60.1501
-63.0214
-65.6756
-68.0822
-70.2026
-71.9934
-73.4203
-74.4549
-75.1009
-75.3792
-75.266
-74.704
-73.6299
-71.9804
-69.6954
-66.7191
-63.0053
-58.5244
-53.271
-47.2762
-40.6202
-33.4651
-26.3246
10.2087
13.8152
17.7711
21.9029
25.7911
29.5168
32.9361
35.8004
38.0645
39.8212
41.1273
42.0539
42.7005
43.1381
43.4189
43.5836
43.6589
43.6605
43.5964
43.4674
43.2681
42.9865
42.6021
42.0927
41.4549
40.7042
39.852
38.9056
37.8756
36.7772
35.6306
34.4603
33.2937
32.1591
31.081
30.0748
29.1395
28.2404
27.322
5.82456
1.99678
-2.36726
-6.97041
-11.4226
-16.0513
-20.6397
-25.0444
-29.3272
-33.4139
-37.2914
-40.9925
-44.5052
-47.8441
-51.0196
-54.0281
-56.8642
-59.5148
-61.958
-64.1671
-66.1069
-67.7391
-69.0333
-69.9668
-70.5451
-70.7908
-70.685
-70.1774
-69.2116
-67.732
-65.6846
-63.0187
-59.6905
-55.6704
-50.9477
-45.5418
-39.5127
-32.9898
-26.4306
9.43169
12.8737
16.6533
20.6062
24.3305
27.9049
31.1915
33.951
36.1385
37.8426
39.1166
40.0272
40.67
41.1129
41.4058
41.5883
41.6864
41.7158
41.6853
41.5966
41.4458
41.2227
40.9097
40.4866
39.949
39.3095
38.5772
37.7578
36.8591
35.8929
34.8748
33.8238
32.7616
31.7102
30.6889
29.7088
28.7682
27.8375
26.8804
5.27581
1.63039
-2.52193
-6.89543
-11.119
-15.5038
-19.8431
-24.0008
-28.0363
-31.8791
-35.5174
-38.9826
-42.2642
-45.376
-48.3284
-51.1186
-53.7423
-56.1878
-58.4357
-60.4615
-62.2343
-63.7198
-64.8915
-65.7313
-66.2466
-66.461
-66.3599
-65.8993
-65.0295
-63.7015
-61.8676
-59.482
-56.5038
-52.9039
-48.6677
-43.8049
-38.3577
-32.4263
-26.417
8.7149
11.9992
15.61
19.3909
22.9575
26.3862
29.5449
32.2031
34.3162
35.9687
37.2107
38.1049
38.7426
39.189
39.4916
39.689
39.8065
39.8599
39.8582
39.8041
39.695
39.5227
39.2718
38.9241
38.4744
37.9326
37.3064
36.5997
35.8184
34.971
34.0696
33.1287
32.1648
31.1947
30.2327
29.2867
28.3534
27.4077
26.4287
4.7761
1.3051
-2.64489
-6.79917
-10.8049
-14.9577
-19.0603
-22.9841
-26.7855
-30.398
-33.8111
-37.0547
-40.1195
-43.0189
-45.7633
-48.3502
-50.7764
-53.0315
-55.0982
-56.9547
-58.5733
-59.9234
-60.9821
-61.7356
-62.1927
-62.3779
-62.2797
-61.86
-61.0754
-59.8828
-58.2406
-56.1074
-53.4462
-50.2281
-46.4362
-42.0718
-37.1623
-31.7821
-26.2912
8.05429
11.1875
14.6362
18.2521
21.6672
24.9555
27.9908
30.5508