/*--------------------------------*- C++ -*----------------------------------*\
| =========                 |                                                 |
| \\      /  F ield         | OpenFOAM: The Open Source CFD Toolbox           |
|  \\    /   O peration     | Version:  2312                                  |
|   \\  /    A nd           | Website:  www.openfoam.com                      |
|    \\/     M anipulation  |                                                 |
\*---------------------------------------------------------------------------*/
FoamFile
{
    version     2.0;
    format      ascii;
    arch        "LSB;label=32;scalar=64";
    class       surfaceScalarField;
    location    "300";
    object      phi;
}
// * * * * * * * * * * * * * * * * * * * * * * * * * * * * * * * * * * * * * //

dimensions      [0 3 -1 0 0 0 0];

oriented        oriented;

internalField   nonuniform List<scalar> 
21254
(
-0.23384
0.253437
-0.0195971
0.275435
-0.0219975
0.294371
-0.018936
0.311283
-0.0169119
0.327256
-0.0159735
0.339982
-0.0127262
0.349964
-0.00998156
0.357952
-0.0079876
0.362978
-0.00502599
0.366038
-0.00306073
0.367184
-0.00114535
0.365862
0.00132161
0.362206
0.0036562
0.356035
0.00617077
0.34695
0.00908527
0.334838
0.0121113
0.318921
0.0159177
0.29851
0.020411
0.27244
0.0260699
0.23996
0.03248
0.20058
0.0393798
0.157647
0.0429331
0.119185
0.0384618
0.0950211
0.024164
0.0900513
0.00496987
0.0995916
-0.00954039
0.113574
-0.013982
0.126056
-0.012482
0.135105
-0.00904914
0.140724
-0.00561882
0.143478
-0.00275418
0.143517
-3.87601e-05
0.140703
0.00281325
0.135145
0.00555872
0.126568
0.00857743
0.11395
0.0126178
0.0954256
0.0185245
0.0671522
0.0282743
0.0662068
0.000957687
-0.210756
-0.0230843
-0.186817
-0.0239384
-0.157428
-0.0293893
-0.125221
-0.0322071
-0.0913083
-0.0339127
-0.0563644
-0.0349439
-0.0219825
-0.0343819
0.00988931
-0.0318718
0.0388514
-0.0289621
0.0644315
-0.0255801
0.0863867
-0.0219552
0.105081
-0.0186944
0.120805
-0.0157238
0.133901
-0.0130965
0.145089
-0.0111872
0.154689
-0.00960016
0.163179
-0.0084898
0.170789
-0.00761053
0.177829
-0.00704002
0.184418
-0.00658889
0.190724
-0.00630622
0.196732
-0.00600772
0.202366
-0.00563386
0.206974
-0.00460794
0.210376
-0.00340253
0.212898
-0.00252214
0.214596
-0.00169756
0.215698
-0.00110172
0.216344
-0.000645843
0.216526
-0.000182383
0.21603
0.000495889
0.21477
0.00126015
0.212744
0.00202538
0.209993
0.00275173
0.206431
0.00356202
0.201725
0.00470596
0.194911
0.00681353
0.181091
0.0138202
0.161208
0.019883
-0.213215
0.234722
-0.0411049
0.256747
-0.0440219
0.279771
-0.0419603
0.301283
-0.0384239
0.322325
-0.0370151
0.341908
-0.0323096
0.359633
-0.027707
0.375785
-0.0241393
0.389994
-0.0192346
0.402339
-0.0154055
0.413057
-0.0118634
0.422596
-0.00821817
0.431297
-0.00504476
0.43921
-0.00174136
0.446124
0.00217082
0.451602
0.00663319
0.455309
0.0122104
0.456884
0.0188365
0.454973
0.0279811
0.448396
0.0390569
0.434682
0.0530937
0.412224
0.0653915
0.380863
0.0698226
0.345611
0.0594161
0.31296
0.0376209
0.284793
0.0186267
0.260878
0.00993216
0.241346
0.00705032
0.226433
0.00586416
0.2155
0.00531425
0.206688
0.0060577
0.19841
0.00823905
0.189723
0.0115003
0.179874
0.0154077
0.168116
0.0203357
0.152926
0.0278081
0.133134
0.0383165
0.0993975
0.0620119
0.0714124
0.0289504
-0.191254
-0.0450445
-0.167754
-0.0474385
-0.14024
-0.0569032
-0.111135
-0.061313
-0.0802185
-0.0648287
-0.047889
-0.0672734
-0.0156464
-0.0666245
0.0151778
-0.062696
0.0433341
-0.0571184
0.0683856
-0.0506316
0.090165
-0.0437346
0.10905
-0.0375795
0.125496
-0.0321701
0.139727
-0.0273266
0.15219
-0.0236509
0.16319
-0.0205998
0.173019
-0.0183189
0.181985
-0.0165766
0.190345
-0.0153998
0.198209
-0.0144534
0.205742
-0.0138389
0.213014
-0.0132793
0.219956
-0.0125763
0.226111
-0.0107632
0.231206
-0.00849782
0.235431
-0.00674671
0.238688
-0.00495495
0.240887
-0.00330026
0.241978
-0.001737
0.242069
-0.00027285
0.241383
0.00118131
0.240107
0.00253647
0.238258
0.0038741
0.235834
0.00517547
0.232758
0.0066382
0.228733
0.00873061
0.223778
0.0117685
0.213434
0.0241649
0.195382
0.037934
-0.206976
0.228673
-0.0628024
0.250521
-0.0658694
0.274109
-0.0655484
0.295671
-0.0599858
0.316164
-0.0575084
0.335759
-0.051905
0.353158
-0.0451057
0.368752
-0.0397328
0.382091
-0.0325743
0.393441
-0.0267556
0.402763
-0.0211854
0.410189
-0.0156437
0.41557
-0.0104258
0.419387
-0.00555807
0.421641
-8.31918e-05
0.423361
0.00491254
0.424647
0.0109244
0.426432
0.0170517
0.42915
0.0252635
0.433484
0.0347231
0.439409
0.047168
0.444915
0.0598861
0.446153
0.0685841
0.440213
0.0653569
0.428136
0.0496972
0.412439
0.0343236
0.394175
0.0281965
0.372809
0.0284159
0.348183
0.0304906
0.321594
0.0319036
0.295482
0.0321694
0.271905
0.0318155
0.251233
0.0321728
0.232237
0.0344034
0.213209
0.0393638
0.192019
0.0489984
0.167127
0.0632089
0.129583
0.0995555
0.0870824
0.0714555
-0.185137
-0.0668828
-0.161207
-0.0713686
-0.132584
-0.0855264
-0.102819
-0.0910778
-0.0717153
-0.0959327
-0.0394234
-0.0995653
-0.00752568
-0.0985223
0.0222568
-0.0924784
0.0495487
-0.0844104
0.0742555
-0.0753384
0.0960519
-0.0655309
0.115113
-0.0566411
0.131823
-0.0488801
0.146459
-0.0419622
0.159328
-0.0365195
0.170768
-0.0320398
0.181044
-0.0285953
0.190424
-0.0259564
0.199115
-0.0240905
0.207281
-0.0226197
0.215109
-0.0216671
0.222613
-0.0207828
0.229694
-0.0196579
0.236053
-0.0171222
0.241401
-0.0138452
0.245849
-0.0111948
0.249466
-0.00857199
0.252291
-0.00612508
0.254387
-0.00383384
0.255748
-0.00163375
0.25643
0.000499166
0.256397
0.00257026
0.255653
0.00461812
0.254126
0.00670238
0.251731
0.0090325
0.248118
0.0123445
0.242965
0.0169212
0.232679
0.0344503
0.214875
0.0557381
-0.199371
0.222055
-0.0854855
0.24482
-0.0886348
0.269854
-0.0905823
0.292708
-0.0828406
0.314869
-0.0796692
0.336122
-0.0731576
0.355646
-0.0646295
0.373265
-0.0573521
0.389193
-0.0485017
0.403208
-0.0407709
0.415423
-0.0334004
0.425851
-0.0260721
0.434558
-0.0191325
0.441617
-0.0126172
0.447329
-0.0057954
0.451149
0.00109313
0.453181
0.00889197
0.453201
0.0170314
0.451761
0.0267043
0.449346
0.0371377
0.447217
0.049297
0.446642
0.0604614
0.447097
0.0681291
0.446315
0.0661388
0.44239
0.0536217
0.435899
0.040815
0.428197
0.0358985
0.419585
0.0370283
0.409022
0.0410531
0.394796
0.0461297
0.375427
0.0515381
0.350755
0.0564883
0.322717
0.06021
0.29402
0.0631008
0.265955
0.0674289
0.237193
0.0777608
0.20565
0.0947519
0.162904
0.142302
0.112317
0.122048
-0.176976
-0.0892782
-0.152971
-0.0953739
-0.12385
-0.114648
-0.0939542
-0.120973
-0.0627869
-0.1271
-0.0303931
-0.131959
0.00141769
-0.130333
0.0308257
-0.121886
0.0576464
-0.111231
0.0819796
-0.0996716
0.103474
-0.087025
0.122371
-0.0755385
0.139103
-0.0656121
0.153923
-0.0567821
0.167151
-0.0497474
0.179011
-0.0439
0.189798
-0.0393818
0.199688
-0.0358471
0.208914
-0.0333158
0.217612
-0.0313178
0.225893
-0.0299483
0.233823
-0.0287129
0.241342
-0.0271763
0.248126
-0.023907
0.253929
-0.0196474
0.25881
-0.0160761
0.262822
-0.0125844
0.266018
-0.00932073
0.268428
-0.00624438
0.270123
-0.00332857
0.271134
-0.000511988
0.271484
0.00222055
0.271166
0.00493586
0.270165
0.00770403
0.268356
0.0108411
0.265369
0.0153311
0.260643
0.021648
0.250913
0.04418
0.232543
0.0741079
-0.195532
0.219037
-0.10899
0.242672
-0.11227
0.269098
-0.117008
0.292692
-0.106435
0.31583
-0.102807
0.338121
-0.0954484
0.358458
-0.0849663
0.376945
-0.0758392
0.393871
-0.0654283
0.408583
-0.0554825
0.421459
-0.0462767
0.432431
-0.0370444
0.441777
-0.0284779
0.449175
-0.0200156
0.454771
-0.0113915
0.458631
-0.00276638
0.461029
0.00649424
0.46209
0.0159702
0.461682
0.0271116
0.460234
0.0385858
0.457854
0.0516773
0.454961
0.0633548
0.451629
0.0714605
0.447178
0.0705903
0.440952
0.0598477
0.433395
0.048372
0.425689
0.0436042
0.418571
0.0441461
0.412071
0.0475529
0.405858
0.0523428
0.398834
0.058562
0.388907
0.0664158
0.373391
0.0757254
0.350589
0.0859033
0.32129
0.0967283
0.28736
0.111691
0.249248
0.132863
0.200614
0.190937
0.144224
0.17844
-0.172086
-0.112724
-0.147353
-0.120107
-0.116968
-0.145033
-0.0862198
-0.151721
-0.0543201
-0.159
-0.0212759
-0.165003
0.0109363
-0.162545
0.0403832
-0.151333
0.067071
-0.137919
0.0911904
-0.123791
0.112441
-0.108276
0.131168
-0.0942652
0.147871
-0.0823156
0.162771
-0.0716821
0.176185
-0.0631609
0.188374
-0.0560895
0.199517
-0.0505243
0.209797
-0.0461269
0.219408
-0.0429271
0.228489
-0.0403986
0.23713
-0.0385901
0.245373
-0.0369559
0.253181
-0.0349839
0.260277
-0.031003
0.266398
-0.0257682
0.271576
-0.0212538
0.27585
-0.016859
0.279274
-0.0127448
0.281869
-0.00883938
0.28367
-0.00512943
0.284721
-0.0015625
0.285087
0.00185391
0.284778
0.00524545
0.283776
0.00870579
0.282059
0.0125582
0.279292
0.0180978
0.274947
0.0259926
0.266402
0.0527249
0.248606
0.0919042
-0.192357
0.216877
-0.13351
0.241836
-0.137229
0.26964
-0.144812
0.294442
-0.131236
0.318603
-0.126969
0.342266
-0.119111
0.363581
-0.106281
0.383363
-0.0956212
0.401304
-0.0833693
0.417288
-0.071467
0.431545
-0.0605331
0.443889
-0.0493887
0.454551
-0.0391404
0.463527
-0.0289911
0.470686
-0.018551
0.476392
-0.0084719
0.480246
0.00264032
0.482369
0.0138466
0.482956
0.0265254
0.481984
0.0395579
0.47969
0.0539708
0.476328
0.0667167
0.471628
0.0761606
0.465129
0.0770895
0.456648
0.0683282
0.446812
0.0582079
0.43665
0.0537664
0.426796
0.0540005
0.417438
0.0569108
0.408741
0.06104
0.400959
0.0663442
0.394028
0.0733469
0.387051
0.0827023
0.377358
0.0955959
0.360662
0.113425
0.333414
0.138939
0.295019
0.171259
0.242432
0.243524
0.181253
0.239622
-0.167947
-0.137135
-0.142401
-0.145653
-0.110709
-0.176724
-0.078821
-0.18361
-0.0459203
-0.1919
-0.0119486
-0.198975
0.0209829
-0.195477
0.0507942
-0.181145
0.0775913
-0.164716
0.101663
-0.147863
0.122766
-0.129379
0.141308
-0.112807
0.157888
-0.0988954
0.172769
-0.0865636
0.18626
-0.0766516
0.198618
-0.0684479
0.210007
-0.0619128
0.220621
-0.0567411
0.230587
-0.0528933
0.240035
-0.049846
0.249054
-0.0476096
0.257667
-0.0455687
0.265818
-0.0431351
0.273323
-0.0385075
0.279848
-0.0322937
0.285383
-0.0267887
0.29002
-0.0214957
0.293755
-0.0164803
0.296632
-0.0117162
0.298682
-0.00717992
0.29995
-0.00283051
0.300465
0.0013395
0.300234
0.0054762
0.299283
0.00965708
0.297474
0.0143672
0.29457
0.0210012
0.289901
0.0306613
0.281536
0.0610899
0.264155
0.109285
-0.190506
0.216354
-0.159359
0.242353
-0.163228
0.271724
-0.174183
0.297795
-0.157308
0.323205
-0.152379
0.347936
-0.143842
0.370409
-0.128754
0.391027
-0.11624
0.409996
-0.102338
0.426894
-0.0883646
0.44195
-0.0755893
0.455303
-0.0627417
0.466825
-0.0506622
0.476588
-0.0387539
0.484665
-0.0266284
0.490887
-0.0146936
0.495443
-0.00191606
0.498327
0.010963
0.499677
0.0251747
0.499589
0.0396463
0.498269
0.0552906
0.495776
0.0692102
0.49198
0.0799563
0.486137
0.0829322
0.478038
0.0764275
0.468169
0.0680769
0.457475
0.0644608
0.446542
0.0649333
0.435504
0.0679482
0.424364
0.0721803
0.413321
0.0773868
0.402729
0.0839391
0.39309
0.0923418
0.38462
0.104066
0.37596
0.122085
0.361814
0.153085
0.334153
0.19892
0.285318
0.292359
0.222102
0.302839
-0.164884
-0.162756
-0.138228
-0.172309
-0.105079
-0.209873
-0.0718745
-0.216814
-0.0377678
-0.226007
-0.0025495
-0.234193
0.0313679
-0.229394
0.0618493
-0.211626
0.0890055
-0.191872
0.113246
-0.172103
0.134303
-0.150436
0.152723
-0.131227
0.169183
-0.115356
0.183985
-0.101365
0.197465
-0.0901324
0.20991
-0.0808923
0.221489
-0.0734924
0.232346
-0.0675977
0.242614
-0.0631609
0.252385
-0.0596171
0.26173
-0.056955
0.270663
-0.0545014
0.279159
-0.051631
0.286972
-0.0463208
0.293873
-0.0391949
0.299781
-0.032696
0.304721
-0.0264361
0.308748
-0.0205069
0.311858
-0.0148261
0.314114
-0.00943654
0.315522
-0.00423796
0.316143
0.000718055
0.315993
0.00562627
0.31503
0.0106195
0.313215
0.0161829
0.31022
0.023996
0.305348
0.0355334
0.296966
0.0694714
0.280097
0.126154
-0.189343
0.216527
-0.186542
0.243958
-0.190658
0.275009
-0.205235
0.302282
-0.18458
0.328981
-0.179078
0.354962
-0.169823
0.378452
-0.152244
0.400279
-0.138067
0.420066
-0.122125
0.4379
-0.106199
0.454013
-0.0917016
0.468243
-0.076972
0.480672
-0.063091
0.491427
-0.0495093
0.500455
-0.0356565
0.507734
-0.0219728
0.513327
-0.00750871
0.517225
0.00706471
0.519403
0.0229965
0.519989
0.0390609
0.519204
0.0560751
0.517077
0.0713379
0.513529
0.0835043
0.508166
0.0882946
0.500623
0.0839711
0.491244
0.0774554
0.480853
0.0748525
0.469974
0.0758115
0.458683
0.0792393
0.44696
0.0839034
0.434719
0.0896283
0.422039
0.0966187
0.409083
0.105298
0.396452
0.116698
0.385061
0.133475
0.374804
0.163342
0.359256
0.214468
0.322959
0.328657
0.263943
0.361858
-0.16249
-0.18961
-0.134673
-0.200126
-0.0998089
-0.244737
-0.0650807
-0.251542
-0.0295363
-0.261551
0.00704998
-0.27078
0.0421881
-0.264532
0.0735586
-0.242997
0.101267
-0.21958
0.125817
-0.196654
0.14697
-0.17159
0.165333
-0.149589
0.18169
-0.131712
0.196387
-0.116062
0.209805
-0.10355
0.222289
-0.0933764
0.233955
-0.0851585
0.244985
-0.0786279
0.255477
-0.0736528
0.265524
-0.069664
0.275156
-0.0665866
0.284416
-0.0637618
0.29324
-0.060455
0.301422
-0.0545031
0.308695
-0.0464673
0.314971
-0.0389722
0.320267
-0.0317324
0.324616
-0.0248562
0.328009
-0.0182185
0.330488
-0.0119158
0.332105
-0.00585512
0.332867
-4.34637e-05
0.33281
0.00568271
0.3319
0.01153
0.330034
0.0180482
0.326938
0.027092
0.321879
0.0405927
0.313375
0.0779758
0.297014
0.142515
-0.189014
0.217567
-0.215096
0.246446
-0.219537
0.279198
-0.237986
0.307862
-0.213244
0.336028
-0.207244
0.363366
-0.197161
0.388076
-0.176953
0.410789
-0.16078
0.431687
-0.143022
0.450356
-0.124869
0.467178
-0.108524
0.482226
-0.0920202
0.495519
-0.0763842
0.507077
-0.0610668
0.516913
-0.0454926
0.525073
-0.0301332
0.531447
-0.0138822
0.536051
0.00246055
0.53895
0.020097
0.54021
0.0378013
0.540013
0.056272
0.538403
0.0729477
0.535278
0.0866298
0.530341
0.0932312
0.523314
0.090998
0.514417
0.0863523
0.504338
0.0849317
0.493662
0.0864874
0.482521
0.0903809
0.470829
0.0955947
0.458525
0.101933
0.445508
0.109636
0.431626
0.119179
0.416817
0.131507
0.401464
0.148829
0.387051
0.177755
0.374584
0.226935
0.351118
0.352122
0.302019
0.410958
-0.16067
-0.217953
-0.131497
-0.229299
-0.0948532
-0.281381
-0.0585575
-0.287838
-0.0213579
-0.298751
0.0168123
-0.30895
0.0534243
-0.301144
0.0858554
-0.275428
0.114297
-0.248021
0.139328
-0.221685
0.160697
-0.192959
0.179105
-0.167997
0.195407
-0.148014
0.21001
-0.130665
0.223347
-0.116888
0.235779
-0.105809
0.247495
-0.0968744
0.258627
-0.0897599
0.269284
-0.0843093
0.279555
-0.079935
0.289474
-0.0765062
0.299006
-0.0732939
0.308136
-0.0695849
0.316668
-0.0630345
0.324326
-0.0541259
0.330951
-0.0455975
0.336599
-0.0373799
0.341244
-0.0295008
0.34493
-0.0219051
0.347656
-0.0146412
0.349454
-0.00765338
0.350366
-0.000955247
0.350388
0.00566053
0.349517
0.0124009
0.34765
0.0199149
0.34448
0.030262
0.339244
0.0458284
0.330713
0.086507
0.314934
0.158293
-0.189113
0.21928
-0.245263
0.249709
-0.249966
0.284355
-0.272632
0.314478
-0.243367
0.343936
-0.236703
0.372748
-0.225973
0.398631
-0.202836
0.422486
-0.184635
0.444372
-0.164908
0.463923
-0.14442
0.481606
-0.126206
0.497537
-0.107951
0.511547
-0.0903942
0.523835
-0.0733555
0.534551
-0.0562084
0.543436
-0.039018
0.550617
-0.0210635
0.555994
-0.00291647
0.559708
0.016383
0.561729
0.0357811
0.562045
0.0559552
0.560909
0.0740844
0.558149
0.0893891
0.553575
0.0978053
0.546922
0.0976513
0.538321
0.0949532
0.528464
0.0947888
0.517885
0.097066
0.506696
0.101571
0.494965
0.107326
0.482612
0.114286
0.469544
0.122703
0.455602
0.133122
0.440496
0.146613
0.423886
0.165439
0.405692
0.19595
0.389545
0.243083
0.371689
0.369978
0.332344
0.450305
-0.159394
-0.247671
-0.128754
-0.25994
-0.0901469
-0.319988
-0.0519897
-0.325995
-0.0131016
-0.337639
0.0269102
-0.348962
0.0650642
-0.339298
0.0987431
-0.309107
0.128089
-0.277367
0.15377
-0.247365
0.175475
-0.214664
0.193998
-0.18652
0.210311
-0.164327
0.224841
-0.145195
0.238087
-0.130134
0.25046
-0.118182
0.262154
-0.108569
0.273327
-0.100933
0.284119
-0.0951006
0.294562
-0.0903789
0.30467
-0.0866135
0.314482
-0.0831062
0.323918
-0.0790213
0.33278
-0.0718965
0.340787
-0.0621327
0.347797
-0.0526072
0.353776
-0.0433594
0.358764
-0.0344885
0.362734
-0.0258754
0.365713
-0.0176195
0.367738
-0.00967834
0.368795
-0.00201209
0.368938
0.00551692
0.368125
0.0132141
0.36624
0.0218001
0.362978
0.0335239
0.357619
0.0511867
0.349077
0.0950496
0.333857
0.173513
-0.189821
0.221561
-0.277004
0.253571
-0.281976
0.290149
-0.30921
0.321954
-0.275172
0.35303
-0.267779
0.383318
-0.256261
0.410351
-0.229869
0.435437
-0.209722
0.458362
-0.187833
0.47886
-0.164917
0.497339
-0.144685
0.513913
-0.124525
0.528729
-0.10521
0.54187
-0.0864963
0.553184
-0.0675231
0.562853
-0.0486868
0.57076
-0.0289707
0.576923
-0.00907881
0.581275
0.0120303
0.583915
0.0331412
0.584859
0.0550115
0.584152
0.074791
0.581806
0.0917353
0.577639
0.101973
0.571414
0.103876
0.563235
0.103132
0.553595
0.104429
0.543025
0.107636
0.531793
0.112802
0.519847
0.119272
0.507248
0.126884
0.493956
0.135996
0.479836
0.147242
0.46465
0.161798
0.448006
0.182083
0.42885
0.215105
0.408679
0.263255
0.39021
0.388446
0.355351
0.485166
-0.158427
-0.279065
-0.126276
-0.292091
-0.0855903
-0.360673
-0.0454982
-0.366087
-0.00464212
-0.378495
0.0372456
-0.390849
0.0771708
-0.379223
0.112249
-0.344184
0.142668
-0.307787
0.169075
-0.273772
0.191257
-0.236846
0.210004
-0.205267
0.2264
-0.180723
0.240891
-0.159686
0.254057
-0.1433
0.266345
-0.13047
0.27799
-0.120214
0.289179
-0.112122
0.30001
-0.105931
0.310575
-0.100944
0.320893
-0.0969319
0.330933
-0.0931458
0.340628
-0.0887164
0.34982
-0.0810888
0.358178
-0.0704907
0.36554
-0.0599692
0.371886
-0.0497059
0.377195
-0.039797
0.381479
-0.0301599
0.384718
-0.0208582
0.386941
-0.0119015
0.388191
-0.00326199
0.388441
0.00526718
0.387692
0.0139632
0.385798
0.0236941
0.382485
0.0368373
0.376992
0.0566787
0.36846
0.103582
0.353867
0.188107
-0.19084
0.224381
-0.310545
0.258153
-0.315748
0.296772
-0.347829
0.330183
-0.308583
0.362875
-0.300471
0.39475
-0.288136
0.423292
-0.258411
0.449519
-0.235948
0.473522
-0.211837
0.494929
-0.186324
0.514312
-0.164069
0.531757
-0.141969
0.547199
-0.120652
0.560971
-0.100269
0.573068
-0.0796201
0.583433
-0.0590516
0.592006
-0.0375433
0.598805
-0.015878
0.603826
0.00700908
0.607115
0.0298529
0.608648
0.0534779
0.608468
0.0749715
0.606545
0.0936582
0.602768
0.105749
0.596944
0.109701
0.589146
0.11093
0.57976
0.113814
0.56931
0.118087
0.55799
0.124122
0.545877
0.131385
0.53298
0.139781
0.519296
0.149679
0.504788
0.161751
0.489227
0.177359
0.472397
0.198914
0.453411
0.234092
0.431429
0.285237
0.410435
0.409441
0.376035
0.519567
-0.157805
-0.312099
-0.123924
-0.325972
-0.081101
-0.403496
-0.0389125
-0.408276
0.00399025
-0.421398
0.0479323
-0.434791
0.0898083
-0.421099
0.126392
-0.380768
0.157993
-0.339388
0.18531
-0.301089
0.208076
-0.259612
0.227147
-0.224338
0.243658
-0.197235
0.25817
-0.174198
0.271276
-0.156405
0.283486
-0.14268
0.29505
-0.131777
0.306201
-0.123273
0.31707
-0.116801
0.327707
-0.11158
0.338153
-0.107378
0.348379
-0.103372
0.358352
-0.0986897
0.367846
-0.0905832
0.376544
-0.0791886
0.38426
-0.0676852
0.390946
-0.0563917
0.396602
-0.0454527
0.40117
-0.0347279
0.404692
-0.0243805
0.407152
-0.0143611
0.408571
-0.00468094
0.408966
0.00487168
0.40827
0.0146594
0.406394
0.0255703
0.403017
0.0402139
0.397418
0.0622777
0.388959
0.11204
0.375001
0.202064
-0.192349
0.227604
-0.3458
0.263239
-0.351383
0.304019
-0.388609
0.339287
-0.343851
0.373735
-0.334919
0.407255
-0.321657
0.437222
-0.288378
0.464788
-0.263514
0.48986
-0.236909
0.512259
-0.208723
0.532485
-0.184295
0.550675
-0.160159
0.566944
-0.136921
0.581431
-0.114755
0.594152
-0.0923418
0.60512
-0.0700189
0.614367
-0.0467903
0.621853
-0.0233638
0.627508
0.00135393
0.63132
0.026041
0.633398
0.0513997
0.633674
0.0746955
0.632174
0.0951581
0.628849
0.109074
0.623525
0.115025
0.61612
0.118334
0.607044
0.12289
0.596708
0.128423
0.585367
0.135463
0.573115
0.143637
0.559967
0.15293
0.545912
0.163734
0.530907
0.176756
0.514801
0.193464
0.497417
0.216298
0.47833
0.253179
0.45601
0.307557
0.433212
0.432239
0.398486
0.554294
-0.157396
-0.347053
-0.121849
-0.361519
-0.0766568
-0.448689
-0.0322732
-0.452659
0.0128777
-0.466549
0.0590895
-0.481003
0.102939
-0.464949
0.141232
-0.419061
0.174139
-0.372295
0.202469
-0.329419
0.225914
-0.283058
0.245394
-0.243818
0.262141
-0.213982
0.276723
-0.18878
0.289798
-0.16948
0.301934
-0.154817
0.313417
-0.143259
0.324504
-0.13436
0.335344
-0.127641
0.346027
-0.122263
0.356565
-0.117916
0.366966
-0.113772
0.377152
-0.108876
0.386942
-0.100373
0.395958
-0.0882038
0.404014
-0.0757414
0.411044
-0.0634219
0.417009
-0.0514176
0.421902
-0.0396207
0.425702
-0.028181
0.428408
-0.0170667
0.430033
-0.00630623
0.430559
0.00434527
0.429954
0.0152645
0.428084
0.0274404
0.424685
0.0436132
0.419009
0.0679539
0.410587
0.120462
0.397309
0.215343
-0.194096
0.231299
-0.383002
0.268901
-0.388985
0.311984
-0.431692
0.349145
-0.381012
0.38538
-0.371154
0.420664
-0.356941
0.452183
-0.319897
0.481069
-0.2924
0.50738
-0.26322
0.530782
-0.232126
0.551982
-0.205495
0.570966
-0.179143
0.587955
-0.15391
0.603124
-0.129925
0.616398
-0.105615
0.628052
-0.0816736
0.637922
-0.0566598
0.645996
-0.0314375
0.652276
-0.00492631
0.656708
0.0216087
0.659289
0.0488183
0.660063
0.0739216
0.65901
0.0962114
0.656098
0.111986
0.651187
0.119936
0.644191
0.125331
0.635448
0.131633
0.625298
0.138573
0.613979
0.146782
0.601613
0.156003
0.588225
0.166319
0.57384
0.178119
0.558367
0.192229
0.54173
0.210101
0.523674
0.234354
0.504023
0.272831
0.481495
0.330085
0.457951
0.455783
0.423468
0.588779
-0.157358
-0.383791
-0.119768
-0.399109
-0.0721912
-0.496266
-0.0254285
-0.499422
0.0220408
-0.514018
0.0705905
-0.529553
0.116708
-0.511066
0.156794
-0.459147
0.191177
-0.406678
0.220621
-0.358862
0.244857
-0.307294
0.264819
-0.26378
0.281854
-0.231018
0.296551
-0.203476
0.309624
-0.182553
0.321714
-0.166907
0.333122
-0.154667
0.344115
-0.145353
0.35491
-0.138436
0.365601
-0.132955
0.376204
-0.128519
0.386722
-0.12429
0.397118
-0.119272
0.407165
-0.11042
0.416478
-0.0975178
0.424858
-0.0841208
0.432222
-0.070786
0.438529
-0.0577244
0.443735
-0.0448265
0.44782
-0.0322661
0.450769
-0.020016
0.452587
-0.00812413
0.453272
0.00366015
0.452759
0.0157777
0.450921
0.0292783
0.447493
0.0470411
0.441771
0.0736756
0.433475
0.128758
0.420849
0.227968
-0.196152
0.235463
-0.422314
0.275091
-0.428613
0.32059
-0.47719
0.359711
-0.420133
0.397883
-0.409326
0.435125
-0.394184
0.468177
-0.352948
0.498514
-0.322738
0.526189
-0.290895
0.550702
-0.256638
0.572797
-0.22759
0.592638
-0.198985
0.610268
-0.17154
0.626123
-0.145779
0.640156
-0.119648
0.652382
-0.0938993
0.662853
-0.0671308
0.671488
-0.0400726
0.678234
-0.0116727
0.683189
0.016654
0.686309
0.0456981
0.6875
0.0727306
0.686887
0.0968244
0.684412
0.114461
0.67996
0.124389
0.673435
0.131855
0.664994
0.140074
0.655047
0.14852
0.64382
0.158009
0.631379
0.168444
0.617803
0.179895
0.603093
0.192829
0.587241
0.208081
0.57008
0.227263
0.55137
0.253064
0.530974
0.293226
0.508007
0.353052
0.484067
0.479723
0.450442
0.622404
-0.157408
-0.422534
-0.117935
-0.438583
-0.0676953
-0.546506
-0.0184444
-0.548673
0.0315201
-0.563983
0.0826422
-0.580675
0.131057
-0.559481
0.173128
-0.501218
0.209042
-0.442592
0.239755
-0.389575
0.264855
-0.332394
0.285426
-0.284352
0.302824
-0.248415
0.317703
-0.218355
0.330834
-0.195684
0.342878
-0.178951
0.354202
-0.165991
0.365128
-0.156279
0.375852
-0.14916
0.386506
-0.143609
0.397137
-0.13915
0.407765
-0.134918
0.418329
-0.129836
0.428606
-0.120697
0.438217
-0.107129
0.4469
-0.0928041
0.454585
-0.078471
0.461202
-0.0643415
0.46672
-0.0503445
0.471081
-0.0366269
0.474294
-0.0232283
0.476341
-0.0101714
0.477171
0.00283047
0.476776
0.0161718
0.474988
0.0310663
0.47155
0.0504802
0.46581
0.0794147
0.457611
0.136957
0.445682
0.239897
-0.198569
0.240042
-0.463787
0.281803
-0.470374
0.32982
-0.525207
0.371012
-0.461325
0.411306
-0.44962
0.450509
-0.433386
0.485272
-0.387712
0.517173
-0.354638
0.54615
-0.319872
0.571766
-0.282254
0.594864
-0.250688
0.61559
-0.219711
0.6341
-0.19005
0.650593
-0.162272
0.665219
-0.134275
0.678031
-0.106711
0.68905
-0.0781493
0.698229
-0.0492522
0.705601
-0.0190446
0.71103
0.011225
0.714574
0.0421544
0.716256
0.0710479
0.716037
0.0970438
0.713979
0.116518
0.709947
0.128421
0.703848
0.137954
0.695796
0.148127
0.686081
0.158234
0.674931
0.169158
0.66245
0.180925
0.648722
0.193624
0.63375
0.207801
0.617486
0.224345
0.599836
0.244913
0.580562
0.272338
0.559477
0.314312
0.535819
0.37671
0.511461
0.504081
0.478867
0.654999
-0.157659
-0.463445
-0.116037
-0.480204
-0.0630906
-0.599452
-0.0112065
-0.600557
0.0414077
-0.616597
0.0952223
-0.63449
0.146141
-0.6104
0.190291
-0.545368
0.227911
-0.480212
0.259954
-0.421618
0.286053
-0.358493
0.307275
-0.305574
0.325095
-0.266235
0.340218
-0.233478
0.353439
-0.208905
0.365489
-0.191001
0.376745
-0.177247
0.38758
-0.167114
0.398226
-0.159805
0.408836
-0.154219
0.419462
-0.149776
0.430143
-0.145599
0.440853
-0.140546
0.451366
-0.13121
0.461225
-0.116988
0.47019
-0.101769
0.478179
-0.0864602
0.485109
-0.0712713
0.490935
-0.0561704
0.495597
-0.0412895
0.499068
-0.0266992
0.501316
-0.0124187
0.502341
0.00180504
0.502054
0.0164587
0.500331
0.0327888
0.496906
0.0539061
0.491164
0.0851561
0.483125
0.144996
0.471914
0.251108
-0.201196
0.244892
-0.507483
0.288986
-0.514468
0.339687
-0.575909
0.383118
-0.504755
0.425577
-0.492079
0.466819
-0.474628
0.503444
-0.424336
0.536961
-0.388156
0.567326
-0.350237
0.594182
-0.30911
0.618421
-0.274926
0.64001
-0.2413
0.659292
-0.209332
0.676521
-0.179501
0.691751
-0.149504
0.705163
-0.120123
0.716716
-0.0897026
0.726446
-0.0589825
0.73426
-0.0268579
0.740203
0.00528116
0.744185
0.0381725
0.74625
0.0689828
0.746469
0.0968256
0.744813
0.118174
0.74124
0.131994
0.735551
0.143643
0.727861
0.155817
0.718405
0.16769
0.707367
0.180197
0.694899
0.193392
0.681037
0.207486
0.66582
0.223018
0.649204
0.24096
0.631088
0.263028
0.611287
0.292139
0.589533
0.336065
0.565199
0.401044
0.540302
0.528978
0.508605
0.686696
-0.15806
-0.50658
-0.114224
-0.52404
-0.0584064
-0.65527
-0.00368504
-0.655278
0.0517087
-0.671991
0.108337
-0.691118
0.161966
-0.66403
0.208308
-0.59171
0.247766
-0.519669
0.281255
-0.455107
0.308407
-0.385646
0.330373
-0.32754
0.348714
-0.284576
0.364129
-0.248894
0.377489
-0.222264
0.389582
-0.203094
0.400803
-0.188468
0.411561
-0.177872
0.422119
-0.170363
0.432652
-0.164753
0.443264
-0.160388
0.45398
-0.156316
0.464805
-0.151371
0.475492
-0.141896
0.485581
-0.127078
0.494826
-0.111014
0.5031
-0.0947341
0.510342
-0.0785129
0.516456
-0.0622842
0.521407
-0.0462408
0.525139
-0.0304312
0.527634
-0.0149135
0.528827
0.000611353
0.528663
0.016623
0.527027
0.0344246
0.523625
0.0573088
0.517942
0.0908383
0.510057
0.152881
0.499533
0.261632
-0.204143
0.250244
-0.553584
0.29678
-0.561004
0.350174
-0.629303
0.396072
-0.550653
0.440705
-0.536712
0.484222
-0.518145
0.5227
-0.462815
0.557939
-0.423394
0.589851
-0.382149
0.618021
-0.33728
0.643251
-0.300156
0.665883
-0.263932
0.685936
-0.229385
0.703886
-0.197451
0.719851
-0.165469
0.733802
-0.134074
0.745926
-0.101827
0.756145
-0.069201
0.764485
-0.0351986
0.770836
-0.00106985
0.77523
0.0337785
0.77774
0.0664733
0.77829
0.0962758
0.777028
0.119436
0.773844
0.135178
0.768569
0.148918
0.761266
0.163119
0.752092
0.176864
0.741248
0.191041
0.728796
0.205844
0.714837
0.221446
0.699392
0.238463
0.68244
0.257912
0.663903
0.281566
0.643537
0.312506
0.621229
0.358373
0.59625
0.426023
0.570711
0.554518
0.539789
0.717619
-0.158663
-0.552061
-0.112443
-0.570259
-0.0535394
-0.714174
0.004093
-0.712911
0.0624826
-0.73038
0.122127
-0.750762
0.178503
-0.720405
0.227276
-0.640483
0.268646
-0.56104
0.303731
-0.490191
0.33205
-0.413964
0.354847
-0.350337
0.373752
-0.303481
0.389519
-0.264661
0.403074
-0.235819
0.41522
-0.21524
0.426444
-0.199691
0.437122
-0.18855
0.447592
-0.180833
0.458048
-0.175208
0.468613
-0.170953
0.479343
-0.167046
0.490263
-0.162291
0.501115
-0.152747
0.511421
-0.137384
0.520897
-0.12049
0.529434
-0.103271
0.536946
-0.0860251
0.543363
-0.0687012
0.548587
-0.0514643
0.552595
-0.0344393
0.555305
-0.017624
0.556706
-0.000789046
0.556704
0.0166243
0.555133
0.0359954
0.551819
0.060623
0.546186
0.0964718
0.538532
0.160534
0.528703
0.271462
-0.20732
0.255952
-0.602216
0.304964
-0.610015
0.361426
-0.685765
0.409641
-0.598868
0.456799
-0.583869
0.502586
-0.563933
0.543176
-0.503405
0.580151
-0.46037
0.613652
-0.415649
0.64316
-0.366788
0.669673
-0.326669
0.69324
-0.2875
0.714238
-0.250383
0.732946
-0.216159
0.749542
-0.182065
0.764111
-0.148643
0.776745
-0.114462
0.787431
-0.0798869
0.796179
-0.0439463
0.802971
-0.00786237
0.807803
0.0289464
0.810613
0.0636632
0.811535
0.095354
0.810664
0.120306
0.807871
0.137972
0.803038
0.15375
0.796108
0.17005
0.787213
0.185759
0.776524
0.20173
0.764158
0.21821
0.750139
0.235464
0.734506
0.254097
0.717253
0.275164
0.698298
0.300521
0.677452
0.333352
0.654579
0.381247
0.62903
0.451571
0.602887
0.580661
0.572604
0.747902
-0.159369
-0.600012
-0.110644
-0.618984
-0.0485197
-0.776298
0.0121841
-0.773615
0.0737169
-0.791913
0.136554
-0.813599
0.19594
-0.779791
0.247193
-0.691737
0.290641
-0.604488
0.327385
-0.526935
0.356975
-0.443554
0.380688
-0.374051
0.400228
-0.32302
0.416423
-0.280856
0.430217
-0.249613
0.442479
-0.227502
0.453703
-0.210916
0.464339
-0.199186
0.474724
-0.191218
0.485119
-0.185603
0.495611
-0.181446
0.506348
-0.177782
0.517325
-0.173269
0.528317
-0.163739
0.538812
-0.147879
0.548492
-0.130171
0.557292
-0.11207
0.565069
-0.0938019
0.571739
-0.0753716
0.577265
-0.0569904
0.581523
-0.0386977
0.58448
-0.0205807
0.586058
-0.00236731
0.58621
0.0164725
0.584778
0.0374279
0.581526
0.0638751
0.576019
0.101978
0.568573
0.16798
0.55945
0.280585
-0.210785
0.262038
-0.653469
0.313725
-0.661702
0.373244
-0.745284
0.424183
-0.649807
0.473788
-0.633474
0.522108
-0.612253
0.564721
-0.546017
0.603653
-0.499302
0.638855
-0.450852
0.669851
-0.397785
0.697546
-0.354363
0.722269
-0.312223
0.744152
-0.272266
0.763657
-0.235664
0.780896
-0.199304
0.796101
-0.163848
0.809237
-0.127598
0.820393
-0.0910431
0.82962
-0.0531728
0.836786
-0.0150288
0.84195
0.0237824
0.845124
0.0604896
0.846377
0.0941005
0.845847
0.120837
0.843442
0.140377