/*--------------------------------*- C++ -*----------------------------------*\
| =========                 |                                                 |
| \\      /  F ield         | OpenFOAM: The Open Source CFD Toolbox           |
|  \\    /   O peration     | Version:  2312                                  |
|   \\  /    A nd           | Website:  www.openfoam.com                      |
|    \\/     M anipulation  |                                                 |
\*---------------------------------------------------------------------------*/
FoamFile
{
    version     2.0;
    format      ascii;
    arch        "LSB;label=32;scalar=64";
    class       volSymmTensorField;
    location    "300";
    object      turbulenceProperties:devReff;
}
// * * * * * * * * * * * * * * * * * * * * * * * * * * * * * * * * * * * * * //

dimensions      [0 2 -2 0 0 0 0];

internalField   nonuniform List<symmTensor> 
10720
(
(0.00163745 0.0042593 -1.66203e-21 -0.0017741 -6.22938e-20 0.000136645)
(0.00238908 0.00488174 1.06825e-21 -0.00248706 6.81868e-20 9.79779e-05)
(0.003612 0.00546252 1.60107e-20 -0.00380929 6.77003e-20 0.000197294)
(0.00524736 0.006217 7.50459e-20 -0.00549343 6.12722e-19 0.000246064)
(0.00742699 0.0068757 -3.04739e-19 -0.00769572 -1.221e-18 0.000268732)
(0.0104068 0.00726424 -3.61657e-19 -0.0107984 -7.37186e-19 0.000391564)
(0.0143029 0.00737692 1.27718e-19 -0.0147893 1.23461e-20 0.000486401)
(0.0191926 0.00686116 6.9442e-20 -0.0197753 1.098e-19 0.000582749)
(0.0252453 0.00535325 1.80873e-19 -0.0259921 -1.46103e-19 0.00074676)
(0.0325722 0.00260722 -2.77795e-20 -0.0334729 -2.78709e-20 0.000900684)
(0.0413518 -0.00189797 3.18841e-18 -0.0424435 1.28541e-18 0.00109174)
(0.0519713 -0.0087353 -7.59493e-19 -0.0532894 -5.83316e-19 0.00131809)
(0.064972 -0.0188252 1.53613e-18 -0.0665655 -2.30634e-18 0.0015935)
(0.0812647 -0.0337555 7.49345e-19 -0.0832199 1.60775e-18 0.0019552)
(0.102391 -0.0561799 1.176e-18 -0.104857 -2.08494e-18 0.00246674)
(0.130559 -0.090422 4.81799e-19 -0.133735 7.34134e-18 0.00317515)
(0.169924 -0.145092 3.69895e-17 -0.174232 1.96962e-17 0.00430754)
(0.224334 -0.232473 -1.03684e-17 -0.230216 1.39458e-17 0.0058815)
(0.311032 -0.388995 -4.15263e-18 -0.319649 -6.74117e-17 0.00861707)
(0.426529 -0.641836 2.22309e-18 -0.438704 -4.34257e-19 0.0121751)
(0.667188 -1.21479 -6.59533e-17 -0.686588 -8.98005e-17 0.0194001)
(0.945695 -2.11459 1.57366e-16 -0.971802 4.77514e-16 0.0261074)
(1.7672 -5.13294 -2.57695e-16 -1.81935 -9.33074e-16 0.0521446)
(2.42858 -10.3115 4.53455e-16 -2.51184 1.24398e-16 0.0832589)
(1.52727 -11.6414 -2.48724e-16 -1.56821 -1.19343e-17 0.0409354)
(0.525717 -11.2228 2.09917e-17 -0.514259 -1.28095e-15 -0.0114572)
(-0.146012 -11.0406 2.70208e-16 0.1758 -6.42638e-17 -0.029788)
(-0.664822 -11.2248 1.95574e-16 0.68956 4.12567e-16 -0.0247378)
(-1.13602 -11.4395 1.14977e-15 1.15239 5.60401e-16 -0.0163654)
(-1.57143 -11.4526 1.04789e-15 1.57971 4.51205e-15 -0.00828144)
(-1.95758 -11.2386 -2.01202e-15 1.95582 -1.74013e-15 0.00176195)
(-2.27332 -10.8325 -2.17654e-15 2.26281 -3.02326e-15 0.0105039)
(-2.49339 -10.2194 -9.24956e-16 2.47845 -3.97143e-15 0.0149456)
(-2.60496 -9.41304 -2.96446e-15 2.58959 -5.58271e-15 0.0153697)
(-2.58913 -8.40512 1.07434e-15 2.57493 2.92239e-15 0.0141996)
(-2.43525 -7.22671 1.80086e-16 2.42424 2.16289e-15 0.0110114)
(-2.074 -5.67329 -4.60553e-17 2.06056 3.65706e-18 0.0134402)
(-1.5866 -4.17164 -1.78689e-15 1.58488 -1.07886e-16 0.00171648)
(-0.472615 -0.926781 -3.59706e-16 0.473398 -1.68927e-15 -0.000782305)
(0.000968137 0.00371433 1.2489e-21 -0.00102004 -4.47083e-21 5.19072e-05)
(0.000549633 0.00319827 -6.73022e-21 -0.000639696 6.83463e-21 9.00635e-05)
(0.00017912 0.00261202 -3.69025e-20 -0.00022621 -2.56635e-20 4.70894e-05)
(-6.73609e-05 0.00209045 3.82431e-20 3.32163e-05 -5.4639e-20 3.41445e-05)
(-0.000179594 0.00159746 -4.70411e-20 0.000161294 -4.68544e-20 1.83006e-05)
(-0.000172954 0.00116761 -2.41074e-19 0.00017333 2.92713e-19 -3.75951e-07)
(-8.43365e-05 0.000835586 8.14362e-20 0.000108422 2.73113e-19 -2.40858e-05)
(5.45096e-05 0.000637088 -4.34551e-20 -1.68028e-05 -3.89562e-19 -3.77068e-05)
(0.000231065 0.000621211 2.00723e-19 -0.000204643 4.95701e-21 -2.64223e-05)
(0.000470949 0.000742093 -1.48237e-19 -0.000467645 -4.26292e-20 -3.30371e-06)
(0.000811899 0.00102652 1.27521e-19 -0.000822539 3.07421e-19 1.06406e-05)
(0.0013058 0.00156593 2.60646e-19 -0.00132377 -1.22024e-19 1.7976e-05)
(0.0020234 0.00252483 -2.59366e-19 -0.00205356 -7.47849e-20 3.0154e-05)
(0.00305446 0.00413581 1.59548e-20 -0.00310573 1.13924e-19 5.12765e-05)
(0.00447154 0.00664264 9.41035e-19 -0.00454645 2.0024e-19 7.49126e-05)
(0.00629729 0.0103349 9.01827e-19 -0.00640596 -1.90371e-19 0.000108669)
(0.00863672 0.0156311 4.08385e-19 -0.00878243 6.36917e-19 0.000145709)
(0.0117371 0.0234189 2.96213e-19 -0.0119352 6.29303e-19 0.000198117)
(0.016144 0.0354416 3.13251e-19 -0.0164123 -1.76945e-19 0.000268297)
(0.0226826 0.0549856 5.9125e-19 -0.0230731 2.58766e-20 0.000390434)
(0.0329322 0.088595 -8.89175e-19 -0.033523 -5.39325e-18 0.000590762)
(0.0490602 0.148491 -3.12982e-18 -0.0500393 -1.0315e-19 0.00097914)
(0.0756836 0.263684 2.96788e-18 -0.077461 5.23992e-18 0.00177731)
(0.116251 0.487646 2.14076e-18 -0.119887 -5.66124e-19 0.00363565)
(0.18319 0.979176 7.46916e-17 -0.191034 -1.51626e-17 0.00784399)
(0.277869 2.01712 -1.11852e-18 -0.29424 -1.1632e-17 0.0163706)
(0.409932 4.53143 1.9832e-19 -0.448395 7.30946e-18 0.0384634)
(0.42108 9.36719 2.27558e-18 -0.501372 -6.99107e-20 0.0802925)
(0.00812033 13.2904 3.28652e-19 -0.112254 4.45081e-21 0.104134)
(-0.628696 14.9585 3.64861e-16 0.530368 5.1128e-18 0.0983274)
(-1.26776 15.3975 -4.18865e-18 1.18552 -2.16482e-19 0.0822415)
(-1.8531 15.4174 -2.64325e-17 1.78577 3.59919e-17 0.0673362)
(-2.37724 15.2553 -2.2429e-15 2.32144 -1.86653e-16 0.055793)
(-2.83298 14.9553 -4.02486e-15 2.78608 -2.59437e-16 0.0469003)
(-3.21836 14.5331 3.58597e-15 3.17803 3.91357e-16 0.0403255)
(-3.53743 14.0101 -2.69094e-17 3.50217 1.37224e-16 0.0352615)
(-3.77508 13.287 1.38462e-18 3.743 -5.27691e-16 0.032087)
(-3.91928 12.4698 -1.93994e-16 3.88929 2.83059e-16 0.0299956)
(-3.63988 10.0657 -3.5104e-15 3.63327 1.25763e-16 0.00661188)
(0.000579452 -0.000460598 -4.14454e-21 -0.000520055 -1.26856e-20 -5.93968e-05)
(0.000492613 -0.000547423 7.54539e-21 -0.000425483 1.70804e-20 -6.71302e-05)
(0.000371411 -0.000623012 -3.38558e-22 -0.000291077 4.81622e-23 -8.03341e-05)
(0.000250507 -0.000652233 1.57236e-20 -0.000158562 2.33591e-21 -9.19448e-05)
(0.000133132 -0.000645154 1.07437e-20 -3.25236e-05 9.34169e-20 -0.000100609)
(2.31218e-05 -0.00061052 7.12219e-20 8.6215e-05 1.24539e-19 -0.000109337)
(-6.03077e-05 -0.000551428 -3.56597e-20 0.000177231 5.74221e-21 -0.000116923)
(-0.000116649 -0.000479025 -3.00545e-20 0.0002385 -7.89024e-21 -0.00012185)
(-0.000149311 -0.00040479 -1.6913e-19 0.000274604 -1.86837e-19 -0.000125293)
(-0.000158014 -0.000336012 -5.6455e-20 0.000285275 -1.85961e-20 -0.000127262)
(-0.000150107 -0.000278319 -4.8971e-19 0.000277015 -4.78354e-19 -0.000126908)
(-0.000132652 -0.000239981 -5.8575e-21 0.000258893 8.03567e-20 -0.000126241)
(-0.000110875 -0.000226179 -2.60767e-19 0.000240766 7.70058e-21 -0.000129891)
(-8.62268e-05 -0.000245901 1.94041e-19 0.000231137 1.15324e-19 -0.00014491)
(-4.84654e-05 -0.000344889 -5.28262e-19 0.000241511 -1.54039e-19 -0.000193046)
(6.28046e-05 -0.000659342 1.93008e-18 0.000258254 4.6782e-19 -0.000321059)
(0.000456286 -0.00155006 -3.3501e-18 0.000141539 -2.91184e-18 -0.000597825)
(0.00150478 -0.00355303 -5.74796e-18 -0.000501204 -2.32937e-18 -0.00100358)
(0.00421463 -0.00869171 -1.19375e-17 -0.00254471 5.0351e-18 -0.00166992)
(0.0105005 -0.0211804 2.34437e-18 -0.00791544 -2.05431e-20 -0.00258509)
(0.0295706 -0.0626992 2.19093e-17 -0.025153 3.23379e-17 -0.00441755)
(0.0741686 -0.174874 -4.16895e-17 -0.0679527 -1.27018e-16 -0.00621587)
(0.195832 -0.54713 -2.23302e-18 -0.188032 2.28322e-16 -0.0078008)
(0.505092 -1.78567 5.22584e-18 -0.502393 -8.75227e-17 -0.00269853)
(0.748744 -3.5453 -0 -0.772575 -0 0.0238305)
(0.789805 -5.3934 -2.56162e-17 -0.844208 6.08273e-16 0.0544032)
(0.603815 -7.15088 -6.82138e-17 -0.675629 4.69264e-17 0.0718133)
(0.204253 -8.3977 -1.10744e-16 -0.279723 -4.76235e-16 0.0754697)
(-0.296121 -8.63956 -9.74394e-16 0.23018 -2.63004e-15 0.0659416)
(-0.707798 -7.90025 3.87912e-16 0.666647 -8.30062e-15 0.0411502)
(-0.931845 -6.69408 -1.09052e-16 0.923522 5.64162e-15 0.00832262)
(-0.998744 -5.47966 -3.38912e-16 1.01696 7.39427e-15 -0.018217)
(-0.984752 -4.49945 -2.19888e-15 1.01457 4.27226e-15 -0.0298174)
(-0.931113 -3.75438 6.48281e-15 0.960758 1.54387e-14 -0.0296453)
(-0.864068 -3.18712 -4.13605e-16 0.888079 -2.76669e-15 -0.024011)
(-0.78179 -2.74406 6.23956e-15 0.802277 -3.67556e-15 -0.0204867)
(-0.731067 -2.43277 -2.24075e-16 0.744441 4.92739e-17 -0.0133737)
(-0.560525 -2.13746 3.1753e-15 0.595821 7.06453e-16 -0.0352961)
(-0.787458 -2.25557 5.72265e-15 0.698496 6.56134e-15 0.0889611)
(0.000645686 -0.000345079 4.77936e-21 -0.000595445 1.56461e-20 -5.02419e-05)
(0.000684465 -0.00022468 -3.0695e-21 -0.000637499 -6.55391e-20 -4.69651e-05)
(0.000691751 -7.64558e-05 -4.117e-20 -0.000654705 -1.37299e-19 -3.70451e-05)
(0.000654317 8.66314e-05 7.56584e-21 -0.000627718 1.94438e-19 -2.65992e-05)
(0.000565157 0.000235265 8.96352e-20 -0.000551021 -8.44651e-20 -1.41361e-05)
(0.000429359 0.000348891 -2.54256e-20 -0.000425691 -1.38459e-19 -3.66837e-06)
(0.00027129 0.000405984 1.37763e-19 -0.000274698 -2.98083e-19 3.40837e-06)
(0.000131157 0.000406969 -2.3342e-19 -0.000140226 -3.16695e-20 9.06918e-06)
(2.29143e-05 0.000374133 -1.28281e-19 -3.34266e-05 2.91663e-19 1.05123e-05)
(-6.62756e-05 0.000316388 -3.90852e-20 6.00426e-05 -1.4965e-20 6.23302e-06)
(-0.000121746 0.000243657 -6.45284e-20 0.000123157 -1.47669e-19 -1.41102e-06)
(-0.000141748 0.000176694 1.34222e-20 0.000150064 -7.86834e-20 -8.31558e-06)
(-0.000139968 0.000124413 5.41202e-20 0.000152769 1.3897e-19 -1.28011e-05)
(-0.00012757 8.66401e-05 -4.75614e-20 0.000142834 -3.23898e-20 -1.52641e-05)
(-0.000111047 6.08971e-05 -2.77696e-20 0.000127501 -9.94614e-20 -1.64538e-05)
(-9.41949e-05 4.40062e-05 -9.91255e-20 0.000110951 -3.02847e-20 -1.67566e-05)
(-7.86868e-05 3.33887e-05 -1.76404e-20 9.51014e-05 -2.32723e-22 -1.64147e-05)
(-6.53946e-05 2.68717e-05 -1.13743e-21 8.10462e-05 -1.02402e-20 -1.56516e-05)
(-5.43377e-05 2.27312e-05 -1.13169e-20 6.89948e-05 8.15436e-21 -1.46571e-05)
(-4.52886e-05 1.99613e-05 1.9724e-20 5.89199e-05 -6.73808e-21 -1.36313e-05)
(-3.79998e-05 1.79293e-05 -1.19565e-19 5.07315e-05 8.85116e-20 -1.27317e-05)
(-3.26742e-05 1.64656e-05 -2.54648e-20 4.49204e-05 5.27797e-21 -1.22462e-05)
(-2.91909e-05 1.55147e-05 -9.36577e-22 4.16893e-05 -2.38861e-20 -1.24984e-05)
(-2.68708e-05 1.54917e-05 1.13347e-19 4.05154e-05 6.29938e-21 -1.36446e-05)
(-2.46038e-05 1.72583e-05 -9.84171e-20 3.96867e-05 8.41842e-21 -1.50829e-05)
(-0.000235177 0.000213331 -9.60988e-19 0.000404369 2.11446e-19 -0.000169191)
(-0.00119679 0.0013558 -8.18273e-20 0.00216643 -1.23923e-19 -0.000969643)
(-0.0086656 0.0119872 -6.58305e-21 0.016244 -3.44432e-19 -0.00757837)
(-0.0262216 0.0459137 -4.97777e-20 0.0499481 -6.76393e-22 -0.0237265)
(-0.0449393 0.102688 2.70935e-18 0.0849882 2.24345e-18 -0.0400489)
(-0.0579678 0.170641 1.83936e-19 0.105289 -9.91652e-19 -0.0473211)
(-0.0659725 0.2352 4.69803e-18 0.111223 -1.74858e-17 -0.0452509)
(-0.0730113 0.289338 2.4555e-15 0.112012 1.76548e-16 -0.0390008)
(-0.0819799 0.334895 2.30253e-15 0.114731 1.2466e-16 -0.0327515)
(-0.094144 0.375334 -2.13833e-15 0.122114 -2.52356e-16 -0.0279696)
(-0.10844 0.415524 2.07395e-15 0.133594 2.72132e-16 -0.0251544)
(-0.128775 0.45615 -3.67731e-15 0.151563 -5.42822e-16 -0.0227884)
(-0.147313 0.552286 -3.42296e-15 0.174159 -7.47194e-16 -0.0268462)
(-0.207641 0.775734 -3.41886e-15 0.197443 -1.03596e-16 0.0101983)
(0.000333667 -0.000312865 -1.56803e-21 -0.000360064 -5.65227e-21 2.63966e-05)
(0.000258335 -0.000372338 -3.36526e-20 -0.000290219 -7.93679e-20 3.18845e-05)
(0.000160814 -0.00041361 2.47497e-20 -0.00019795 5.91755e-20 3.71364e-05)
(5.20227e-05 -0.000426404 3.41414e-20 -9.69074e-05 6.46439e-20 4.48847e-05)
(-5.44817e-05 -0.00041311 6.17194e-20 3.58979e-06 8.9152e-20 5.08919e-05)
(-0.000154845 -0.000372478 -1.8935e-19 9.79573e-05 -3.31435e-19 5.68876e-05)
(-0.000239009 -0.000308498 1.32598e-19 0.000175486 2.66177e-19 6.35237e-05)
(-0.000300063 -0.000230741 1.76503e-19 0.000231183 1.57488e-19 6.88799e-05)
(-0.000337826 -0.000145407 -1.01098e-20 0.000264353 2.12911e-20 7.34735e-05)
(-0.000353021 -6.10863e-05 1.06896e-19 0.000275499 1.90589e-19 7.75223e-05)
(-0.000348709 1.66197e-05 -2.31364e-19 0.000268575 -1.09417e-20 8.01341e-05)
(-0.000331431 8.39475e-05 3.14194e-19 0.000250388 3.48648e-19 8.1043e-05)
(-0.000307378 0.000139326 1.47749e-19 0.00022756 6.06704e-20 7.98176e-05)
(-0.000281431 0.000184906 7.38785e-20 0.000204202 -7.05621e-20 7.7229e-05)
(-0.000254249 0.000218923 2.11591e-19 0.000181733 2.09072e-19 7.25162e-05)
(-0.000223318 0.000237048 -5.19425e-19 0.000158564 -5.29747e-19 6.47535e-05)
(-0.000180534 0.000228526 1.16819e-19 0.000128462 1.70841e-19 5.20721e-05)
(-0.000158478 0.000232153 9.65681e-19 0.000114411 2.83296e-19 4.40675e-05)
(-9.8414e-05 0.000162466 2.05712e-19 7.30553e-05 1.51484e-19 2.53587e-05)
(-0.000912894 0.00164485 -6.7237e-19 0.000706266 -4.67424e-20 0.000206628)
(-6.81539e-05 0.000130515 6.81949e-20 5.55088e-05 -1.50508e-19 1.26451e-05)
(-0.000152415 0.000300992 4.19618e-20 0.000132551 3.61802e-19 1.98639e-05)
(-9.60465e-06 1.08408e-05 2.04566e-19 1.02677e-05 -4.2053e-20 -6.63028e-07)
(0.001338 -0.00498264 -6.03332e-18 -0.00107898 -2.51737e-18 -0.000259022)
(0.0122946 -0.0543612 2.42404e-19 -0.010451 6.13422e-19 -0.00184357)
(0.0323368 -0.194224 -5.74915e-17 -0.0281531 1.64341e-17 -0.00418367)
(0.053721 -0.495695 2.02323e-17 -0.0476422 8.36134e-18 -0.00607878)
(0.0639174 -1.11536 -2.56072e-17 -0.0566841 -2.12036e-18 -0.00723331)
(0.0252675 -2.20478 -6.36544e-16 -0.0184551 6.50303e-16 -0.00681235)
(-0.120325 -3.63908 -1.08546e-15 0.123527 3.35565e-17 -0.00320208)
(-0.388065 -4.92174 3.90767e-15 0.382845 -1.1511e-15 0.00521996)
(-0.69272 -5.52952 3.18662e-15 0.678259 1.73806e-15 0.0144611)
(-0.906327 -5.37072 -1.54809e-16 0.890561 4.30234e-15 0.0157653)
(-0.983701 -4.78948 6.63901e-15 0.975298 -5.04603e-15 0.00840237)
(-0.965357 -4.12995 5.16113e-15 0.963889 -2.92548e-15 0.00146832)
(-0.878936 -3.52508 -9.58163e-15 0.88192 -3.55199e-15 -0.00298386)
(-0.798981 -3.05457 -2.7022e-17 0.798063 -1.6897e-15 0.000917825)
(-0.531772 -2.5573 6.26929e-15 0.547864 -1.58531e-15 -0.0160914)
(-0.844249 -2.81536 -1.3101e-14 0.826242 4.22459e-15 0.0180061)
(0.000395292 -0.000236861 -7.37971e-21 -0.000419387 -1.78447e-20 2.40949e-05)
(0.000435604 -0.000154406 -6.13671e-21 -0.000454984 -6.74002e-21 1.93793e-05)
(0.000460069 -5.33282e-05 5.53632e-20 -0.000475001 9.69817e-20 1.49325e-05)
(0.000454794 5.43389e-05 -3.34154e-20 -0.000464243 -1.63182e-21 9.4485e-06)
(0.000415729 0.000160438 7.97043e-21 -0.000421197 4.18095e-20 5.46808e-06)
(0.000342176 0.000248035 -1.30348e-20 -0.000344159 1.3223e-19 1.98359e-06)
(0.000244249 0.000303012 -3.01173e-20 -0.000243943 1.25317e-19 -3.06279e-07)
(0.000141103 0.00031992 3.51242e-19 -0.000141848 2.53611e-19 7.45713e-07)
(4.8173e-05 0.000309289 5.2383e-20 -4.9635e-05 -6.88592e-20 1.462e-06)
(-2.83165e-05 0.00027396 1.8742e-19 2.72611e-05 2.44935e-20 1.05539e-06)
(-7.85566e-05 0.00022143 -1.45785e-19 7.72286e-05 -9.79286e-20 1.32797e-06)
(-0.000102655 0.000166994 -1.05135e-19 0.000100151 1.61388e-19 2.50387e-06)
(-0.000108698 0.000119389 1.13108e-19 0.000104636 -5.7257e-20 4.06161e-06)
(-0.000104076 8.10262e-05 9.28618e-20 9.83219e-05 -3.3897e-22 5.75434e-06)
(-9.40504e-05 5.20708e-05 -6.67972e-20 8.68788e-05 6.44499e-20 7.17161e-06)
(-8.20459e-05 3.10563e-05 -4.81037e-20 7.36851e-05 1.16118e-19 8.36083e-06)
(-7.02354e-05 1.64222e-05 1.16321e-19 6.10181e-05 -7.1312e-20 9.21723e-06)
(-5.97469e-05 6.32335e-06 1.07995e-19 4.99074e-05 -1.97216e-20 9.83948e-06)
(-5.10687e-05 -7.55503e-07 4.22396e-20 4.088e-05 -3.74371e-21 1.01888e-05)
(-4.39429e-05 -6.0822e-06 -1.4237e-20 3.35006e-05 5.26947e-20 1.04423e-05)
(-3.80827e-05 -1.04035e-05 1.99667e-19 2.74999e-05 2.47029e-20 1.05828e-05)
(-3.29339e-05 -1.44495e-05 7.91751e-21 2.21622e-05 -3.67219e-20 1.07717e-05)
(-2.7764e-05 -1.86692e-05 -6.31821e-22 1.66956e-05 -2.36023e-21 1.10683e-05)
(-2.1093e-05 -2.26133e-05 -4.34598e-21 9.24141e-06 -2.54117e-20 1.18516e-05)
(-1.29618e-05 -2.48019e-05 -3.55819e-21 -2.29267e-07 1.87117e-20 1.31911e-05)
(-4.81248e-06 -2.40836e-05 3.09796e-19 -9.43262e-06 -1.59114e-20 1.42451e-05)
(2.16638e-06 -2.25519e-05 8.31079e-22 -1.80181e-05 -2.40732e-23 1.58517e-05)
(5.47369e-06 -1.3833e-05 -2.36726e-20 -1.76516e-05 1.32892e-21 1.21779e-05)
(5.61766e-05 -7.33192e-05 -1.14656e-21 -0.000143533 -1.7668e-22 8.73567e-05)
(0.000480785 -0.000275616 -2.5527e-18 -0.00111207 -9.52655e-20 0.000631288)
(0.00144988 0.000425037 1.76569e-17 -0.00321984 7.8307e-19 0.00176996)
(0.00231317 0.00468675 -2.38323e-19 -0.00521407 -1.32773e-20 0.0029009)
(0.00185835 0.0154419 -2.73207e-16 -0.00506967 -1.28058e-17 0.00321132)
(-0.000686061 0.0342817 -3.14749e-19 -0.00190519 9.42154e-18 0.00259125)
(-0.00553075 0.0608482 -1.19936e-18 0.00399115 8.21298e-18 0.00153959)
(-0.0113371 0.0929674 3.54176e-17 0.0108452 -1.03175e-16 0.00049191)
(-0.019077 0.127598 -1.72881e-16 0.0190369 7.1127e-16 4.00641e-05)
(-0.00964061 0.154087 2.18641e-15 0.0104737 8.14428e-16 -0.000833072)
(-0.0374546 0.261174 4.48596e-15 0.0294735 1.75811e-15 0.0079811)
(0.000306288 -0.00025827 -6.67632e-21 -0.00029688 -1.24799e-20 -9.408e-06)
(0.0002593 -0.000306129 -1.45512e-20 -0.000248909 -2.33151e-20 -1.03906e-05)
(0.000195905 -0.000347454 2.78044e-20 -0.000182628 4.23075e-20 -1.32772e-05)
(0.000125011 -0.000374253 3.91484e-20 -0.000109128 3.8068e-20 -1.58832e-05)
(5.17561e-05 -0.000382671 4.42406e-21 -3.28702e-05 -1.92187e-21 -1.8886e-05)
(-2.13159e-05 -0.000372974 -1.50162e-20 4.36979e-05 3.69154e-20 -2.2382e-05)
(-8.66995e-05 -0.000347109 2.85006e-19 0.000112621 2.85565e-19 -2.59215e-05)
(-0.000139564 -0.000308103 -2.66787e-19 0.000169026 -3.54274e-19 -2.94616e-05)
(-0.00017844 -0.000260575 7.45607e-20 0.000211711 1.92758e-20 -3.32716e-05)
(-0.000202026 -0.00020992 3.51868e-19 0.000238722 2.60664e-19 -3.66966e-05)
(-0.000211593 -0.000160041 2.76276e-19 0.00025151 2.80601e-19 -3.99179e-05)
(-0.000209305 -0.000114102 2.98973e-19 0.000251841 8.59042e-20 -4.25355e-05)
(-0.000197737 -7.42108e-05 -3.32377e-19 0.000241988 -2.52041e-19 -4.42502e-05)
(-0.000179872 -4.12296e-05 -2.0762e-19 0.000224695 -2.08289e-19 -4.48229e-05)
(-0.00015775 -1.50476e-05 2.27425e-20 0.000202227 -6.94675e-20 -4.44765e-05)
(-0.000133043 7.47796e-06 -5.02906e-19 0.000175187 3.54033e-20 -4.21442e-05)
(-0.000107612 2.66435e-05 -1.37698e-19 0.000145757 -1.74506e-19 -3.8145e-05)
(-8.50746e-05 4.31926e-05 -7.76541e-19 0.000118237 -6.03927e-19 -3.31623e-05)
(-6.13368e-05 5.4106e-05 7.37625e-20 8.60902e-05 -9.92637e-20 -2.47533e-05)
(-4.40535e-05 5.99966e-05 2.76303e-20 6.04234e-05 -6.30265e-20 -1.63699e-05)
(-3.81237e-05 7.09661e-05 -2.56515e-19 4.90984e-05 -3.04541e-21 -1.09747e-05)
(-4.10516e-05 9.54428e-05 4.29963e-20 4.93894e-05 9.50942e-21 -8.33788e-06)
(-3.74613e-05 0.000112411 -2.13653e-19 4.35298e-05 -4.34964e-20 -6.06848e-06)
(-0.000262829 0.00119549 -7.16164e-19 0.00031359 7.68894e-19 -5.07613e-05)
(-0.000611559 0.00658781 1.0955e-18 0.000891502 7.42366e-20 -0.000279943)
(3.89009e-06 9.78727e-05 7.93673e-20 6.10284e-07 4.23339e-20 -4.50038e-06)
(0.000231997 0.00119974 -1.30195e-19 -0.000166406 5.38202e-20 -6.55905e-05)
(0.00106237 0.00144701 6.44537e-19 -0.000889462 4.09068e-20 -0.000172905)
(0.00478451 -0.0116839 4.08295e-17 -0.00421641 2.48726e-18 -0.000568094)
(0.0101129 -0.110355 -1.00671e-17 -0.00885375 1.23077e-16 -0.00125911)
(-0.000399477 -0.479798 -5.3374e-16 0.0025945 -5.26707e-16 -0.00219503)
(-0.077021 -1.30138 1.99152e-15 0.0797204 -1.86793e-15 -0.00269936)
(-0.263985 -2.4273 2.17932e-15 0.264846 -2.12509e-16 -0.000860934)
(-0.514734 -3.34727 -3.84967e-16 0.511305 -7.2459e-15 0.00342904)
(-0.716084 -3.72501 -5.82621e-15 0.710121 -1.76446e-15 0.00596349)
(-0.793362 -3.65227 7.00069e-16 0.790832 3.66568e-15 0.00252993)
(-0.801695 -3.42207 -9.96889e-15 0.797015 1.47878e-15 0.00467938)
(-0.574224 -3.02052 -6.98998e-15 0.584579 8.73375e-16 -0.010355)
(-0.815064 -3.21344 8.11217e-15 0.786726 -4.94824e-15 0.0283389)
(0.000342239 -0.000198544 -3.6114e-21 -0.000335911 -3.70695e-21 -6.32847e-06)
(0.000364735 -0.000135373 1.28837e-20 -0.000359247 5.89869e-20 -5.48891e-06)
(0.00037334 -5.72849e-05 3.82398e-20 -0.000370647 8.49414e-20 -2.69282e-06)
(0.000363963 2.51227e-05 4.12024e-20 -0.000362641 -2.01269e-20 -1.3221e-06)
(0.000332449 0.000105518 -8.1831e-20 -0.00033255 -7.0285e-20 1.01247e-07)
(0.000278591 0.000174391 -9.02059e-21 -0.000278871 -1.00524e-19 2.80464e-07)
(0.000208914 0.00022287 -1.25524e-19 -0.000208657 -1.28909e-19 -2.56529e-07)
(0.000134127 0.000246337 -1.98246e-19 -0.000134155 -7.31845e-21 2.89102e-08)
(6.21144e-05 0.000246793 -5.70421e-20 -6.2919e-05 -3.14897e-20 8.04637e-07)
(-4.56666e-07 0.000226475 6.1721e-20 -6.86689e-07 -4.32113e-20 1.14335e-06)
(-4.59979e-05 0.000192104 6.11335e-20 4.50056e-05 1.40266e-19 9.92286e-07)
(-7.36366e-05 0.000153547 1.15057e-19 7.31213e-05 -4.46291e-20 5.1535e-07)
(-8.69182e-05 0.000117349 -9.83182e-20 8.71689e-05 -1.1279e-19 -2.50701e-07)
(-9.02472e-05 8.64078e-05 -1.85865e-20 9.13655e-05 4.19447e-20 -1.11834e-06)
(-8.7319e-05 6.17708e-05 8.9588e-20 8.9337e-05 -1.95253e-20 -2.01796e-06)
(-8.10787e-05 4.30158e-05 1.96675e-19 8.3901e-05 -1.40304e-20 -2.8223e-06)
(-7.35851e-05 2.93078e-05 -1.23415e-19 7.71377e-05 -3.5362e-20 -3.55259e-06)
(-6.61129e-05 1.94608e-05 -3.74898e-20 7.02678e-05 -5.47111e-20 -4.15481e-06)
(-5.9358e-05 1.23081e-05 -1.74924e-20 6.40059e-05 9.69539e-21 -4.64787e-06)
(-5.34519e-05 6.79761e-06 1.82705e-19 5.84361e-05 -7.2201e-20 -4.98412e-06)
(-4.83449e-05 2.25182e-06 3.30003e-20 5.35918e-05 -4.8344e-20 -5.24689e-06)
(-4.37609e-05 -1.90653e-06 -1.77857e-19 4.92021e-05 5.22187e-20 -5.44119e-06)
(-3.92329e-05 -6.01995e-06 -7.44413e-21 4.48491e-05 2.6278e-20 -5.61624e-06)
(-3.40479e-05 -9.8441e-06 -2.86363e-21 3.97784e-05 -1.75725e-20 -5.73055e-06)
(-2.84141e-05 -1.22476e-05 2.67065e-21 3.44228e-05 -2.18733e-22 -6.00872e-06)
(-2.34559e-05 -1.29976e-05 -1.36229e-19 3.00698e-05 -2.79992e-20 -6.6139e-06)
(-1.95446e-05 -1.28636e-05 -2.41068e-21 2.68433e-05 4.28705e-22 -7.29871e-06)
(-1.65193e-05 -1.23524e-05 2.92447e-20 2.44663e-05 7.77698e-22 -7.94701e-06)
(-1.36846e-05 -1.14356e-05 -1.04459e-21 2.18799e-05 -2.50816e-23 -8.19531e-06)
(-1.08673e-05 -1.01995e-05 6.77632e-22 1.87062e-05 9.65771e-22 -7.83882e-06)
(-7.46837e-06 -8.19199e-06 -8.1337e-20 1.38409e-05 -2.93247e-21 -6.37251e-06)
(-4.21209e-06 -5.75955e-06 -2.1888e-21 8.61954e-06 -1.36001e-22 -4.40746e-06)
(-3.03649e-05 -5.73979e-05 3.81498e-21 7.74474e-05 -7.02332e-20 -4.70825e-05)
(-6.07053e-07 -4.61237e-05 1.72227e-17 0.00011048 1.55202e-18 -0.000109873)
(0.000237722 0.000602747 1.10265e-18 -0.000137024 1.23301e-19 -0.000100697)
(0.000888 0.00334681 -1.8834e-16 -0.000948154 -3.56592e-17 6.01535e-05)
(0.00157518 0.0112132 1.25104e-15 -0.00205521 1.8367e-16 0.000480032)
(0.00671773 0.0278915 4.81326e-17 -0.00720845 -1.76505e-16 0.000490725)
(-0.00282301 0.104457 2.73088e-16 -0.00195648 -1.51814e-15 0.00477949)
(0.000222632 -0.000196163 -7.99976e-21 -0.000225649 -1.18922e-20 3.01714e-06)
(0.00018414 -0.000231659 -1.46003e-20 -0.000188502 -1.97226e-20 4.36165e-06)
(0.00013443 -0.00026128 4.96383e-20 -0.000139266 6.35987e-20 4.83611e-06)
(7.79787e-05 -0.000279215 -2.11746e-19 -8.41456e-05 -2.89704e-19 6.16692e-06)
(1.89071e-05 -0.000283343 5.25454e-20 -2.64585e-05 8.24461e-20 7.55147e-06)
(-4.04709e-05 -0.000273088 1.14586e-19 3.16381e-05 1.19132e-19 8.83278e-06)
(-9.48658e-05 -0.000249175 -9.77692e-20 8.42965e-05 -1.60286e-19 1.05694e-05)
(-0.000140379 -0.000213793 -6.58962e-20 0.000127957 1.13946e-20 1.24216e-05)
(-0.000174771 -0.000169935 -3.93634e-19 0.000160504 -3.72342e-19 1.42665e-05)
(-0.000196708 -0.000121811 -5.50621e-20 0.000180344 -1.48675e-19 1.63646e-05)
(-0.000206305 -7.28577e-05 1.08156e-20 0.000187846 -3.48979e-20 1.84591e-05)
(-0.000204726 -2.62486e-05 -1.9701e-19 0.000184179 -2.50261e-19 2.05469e-05)
(-0.00019399 1.54616e-05 9.44001e-20 0.00017146 1.13247e-19 2.253e-05)
(-0.000176481 5.07552e-05 -3.87161e-19 0.000152281 -2.01257e-19 2.42004e-05)
(-0.000154518 7.94517e-05 8.43538e-20 0.000128945 4.69866e-20 2.55732e-05)
(-0.000130541 0.000100474 3.68544e-19 0.0001046 3.08349e-19 2.59411e-05)
(-0.000106123 0.000113129 -5.04678e-19 8.13126e-05 -1.43544e-19 2.48101e-05)
(-8.18621e-05 0.000118165 -9.24201e-20 5.91648e-05 4.15436e-19 2.26973e-05)
(-5.97975e-05 0.000118334 -3.13256e-20 3.96787e-05 -5.31068e-20 2.01188e-05)
(-3.88752e-05 0.000109867 -3.66866e-19 2.24642e-05 -5.94077e-20 1.6411e-05)
(-2.18167e-05 9.31199e-05 3.42391e-19 1.01696e-05 2.10066e-19 1.16471e-05)
(-1.0925e-05 7.10521e-05 8.48174e-21 4.17183e-06 -1.22548e-20 6.75317e-06)
(-6.78599e-06 6.98967e-05 1.78479e-19 2.1536e-06 4.97328e-20 4.63239e-06)
(-2.54146e-06 7.98921e-05 1.31645e-19 -1.19676e-06 4.39189e-20 3.73821e-06)
(3.75621e-06 8.70507e-05 -1.2755e-20 -6.73212e-06 -1.2013e-21 2.97591e-06)
(9.46662e-06 8.92956e-05 1.37916e-21 -1.15596e-05 -4.99591e-21 2.09294e-06)
(2.77698e-05 0.000194041 3.07268e-20 -3.04229e-05 -8.50329e-21 2.65309e-06)
(0.000267766 0.00163744 -1.22102e-19 -0.000278472 -1.84477e-19 1.0706e-05)
(0.00150434 0.00805053 -8.61478e-18 -0.00151748 -4.28768e-19 1.31376e-05)
(0.000947244 0.00416085 4.86667e-19 -0.000938616 2.7696e-20 -8.62799e-06)
(0.00274253 0.00863965 -2.64918e-18 -0.00269631 1.01733e-18 -4.62122e-05)
(0.0105898 0.0120065 -2.23616e-16 -0.0103614 -1.58347e-16 -0.000228417)
(0.0187197 -0.0987757 -8.17818e-17 -0.0178879 -2.53008e-16 -0.000831766)
(-0.0257654 -0.585404 -5.45899e-15 0.0277618 5.37829e-16 -0.00199643)
(-0.182526 -1.49203 7.65247e-16 0.184343 2.51235e-15 -0.0018174)
(-0.401182 -2.40133 -8.62959e-19 0.401892 1.32947e-19 -0.000710098)
(-0.586455 -2.96561 -3.40575e-16 0.582491 4.5468e-15 0.00396432)
(-0.525821 -3.08708 1.42324e-16 0.536459 1.9042e-16 -0.010638)
(-0.773692 -3.40317 -1.32605e-14 0.736202 2.74789e-15 0.0374899)
(0.000253113 -0.000152938 1.41152e-20 -0.000256272 9.06642e-21 3.15894e-06)
(0.000274194 -0.000106606 -3.97516e-20 -0.000275968 -6.40842e-20 1.7739e-06)
(0.000285741 -4.96965e-05 -2.19633e-20 -0.00028736 3.7283e-20 1.61986e-06)
(0.000283487 1.17441e-05 1.06076e-19 -0.000284311 7.79361e-20 8.24024e-07)
(0.000264504 7.30725e-05 -3.95977e-20 -0.000265081 -2.04194e-19 5.76869e-07)
(0.000228088 0.00012751 -7.08488e-20 -0.000228097 4.80295e-20 9.30323e-09)
(0.000178361 0.000168587 1.78815e-19 -0.000178036 1.39207e-19 -3.25361e-07)
(0.000122729 0.00019233 -5.94456e-20 -0.00012261 -1.62497e-19 -1.19466e-07)
(6.67984e-05 0.000198838 -1.43187e-19 -6.69783e-05 -6.47391e-20 1.79858e-07)
(1.60152e-05 0.000188967 -1.06528e-19 -1.6355e-05 4.16242e-20 3.39787e-07)
(-2.36249e-05 0.000167077 1.17734e-19 2.33214e-05 4.48495e-21 3.03493e-07)
(-5.04648e-05 0.000139423 -6.73264e-20 5.01856e-05 -6.88098e-20 2.79197e-07)
(-6.5851e-05 0.000111003 -8.6158e-20 6.55207e-05 6.87687e-20 3.30322e-07)
(-7.23412e-05 8.48049e-05 8.34209e-20 7.18747e-05 3.58995e-20 4.66413e-07)
(-7.25479e-05 6.24478e-05 -1.22285e-19 7.18747e-05 2.03966e-20 6.73231e-07)
(-6.88997e-05 4.43433e-05 -3.28326e-20 6.79453e-05 -9.02632e-20 9.54383e-07)
(-6.3245e-05 3.02759e-05 3.64663e-20 6.19816e-05 4.66862e-20 1.26342e-06)
(-5.69297e-05 1.95778e-05 -1.3359e-19 5.53492e-05 6.25791e-21 1.58057e-06)
(-5.07723e-05 1.14658e-05 5.30544e-20 4.88962e-05 -9.49888e-22 1.87609e-06)
(-4.51152e-05 5.14095e-06 -2.0216e-19 4.29637e-05 1.38107e-20 2.15143e-06)
(-4.00252e-05 -1.89498e-08 -2.78582e-20 3.76479e-05 7.59718e-21 2.37724e-06)
(-3.53209e-05 -4.51999e-06 1.61978e-19 3.27528e-05 1.49885e-20 2.56811e-06)
(-3.063e-05 -8.65109e-06 1.55235e-19 2.7911e-05 -3.55353e-20 2.71901e-06)
(-2.53547e-05 -1.22565e-05 -1.29367e-19 2.24353e-05 9.58884e-21 2.91944e-06)
(-1.9506e-05 -1.45471e-05 -1.80473e-21 1.63541e-05 1.07846e-21 3.1519e-06)
(-1.39186e-05 -1.52694e-05 -1.23836e-19 1.05785e-05 3.77895e-20 3.34003e-06)
(-9.03337e-06 -1.5017e-05 -2.44253e-21 5.38791e-06 2.64638e-23 3.64546e-06)
(-4.81777e-06 -1.41922e-05 -1.97627e-23 7.48266e-07 -1.03426e-21 4.06951e-06)
(-1.23877e-06 -1.3131e-05 -1.42365e-22 -3.32051e-06 2.87688e-23 4.55928e-06)
(1.63471e-06 -1.12929e-05 4.45372e-20 -6.3511e-06 3.66487e-22 4.71638e-06)
(4.36708e-06 -1.18002e-05 1.65075e-22 -1.0022e-05 -3.63232e-22 5.65488e-06)
(3.22972e-06 -5.83779e-06 4.41306e-23 -6.13102e-06 -1.31847e-24 2.9013e-06)
(1.18501e-05 -1.72036e-05 -6.12341e-19 -1.98212e-05 -4.58758e-20 7.97104e-06)
(8.60309e-05 -0.000108029 -4.00325e-18 -0.000127931 -3.41935e-19 4.19004e-05)
(0.000239601 -0.000261129 9.53791e-20 -0.000317183 9.59173e-21 7.7582e-05)
(0.000568975 -0.000462941 -4.28069e-17 -0.000660931 -6.75206e-19 9.19559e-05)
(0.000259658 -9.30062e-05 2.00345e-18 -0.000280686 -1.49347e-17 2.10274e-05)
(0.000881844 0.000199944 1.37759e-18 -0.000861468 2.71974e-19 -2.03758e-05)
(0.00383338 0.0196855 -5.078e-16 -0.00520513 7.0571e-17 0.00137175)
(0.000184132 -0.000161044 1.57558e-20 -0.000183019 1.84838e-20 -1.11227e-06)
(0.000155877 -0.00018975 -1.18908e-20 -0.000154869 -1.33764e-20 -1.00772e-06)
(0.00011862 -0.00021497 5.00482e-23 -0.000117015 -9.8841e-22 -1.60555e-06)
(7.60778e-05 -0.000232416 -6.79058e-21 -7.41853e-05 6.36648e-21 -1.89254e-06)
(3.10209e-05 -0.000239997 1.51924e-19 -2.87507e-05 1.60426e-19 -2.27013e-06)
(-1.54688e-05 -0.000237336 -9.61156e-20 1.84467e-05 -1.23498e-19 -2.97793e-06)
(-5.93603e-05 -0.000224525 -7.26387e-21 6.29793e-05 3.18363e-20 -3.61892e-06)
(-9.77139e-05 -0.000202648 3.28465e-19 0.000102105 3.1628e-19 -4.39068e-06)
(-0.000128811 -0.000173566 -7.75391e-20 0.000134198 5.6081e-21 -5.38744e-06)