/*--------------------------------*- C++ -*----------------------------------*\
| =========                 |                                                 |
| \\      /  F ield         | OpenFOAM: The Open Source CFD Toolbox           |
|  \\    /   O peration     | Version:  2312                                  |
|   \\  /    A nd           | Website:  www.openfoam.com                      |
|    \\/     M anipulation  |                                                 |
\*---------------------------------------------------------------------------*/
FoamFile
{
    version     2.0;
    format      ascii;
    arch        "LSB;label=32;scalar=64";
    class       volScalarField;
    location    "300";
    object      turbulenceProperties:k;
}
// * * * * * * * * * * * * * * * * * * * * * * * * * * * * * * * * * * * * * //

dimensions      [0 2 -2 0 0 0 0];

internalField   nonuniform List<scalar> 
10720
(
0.019984
0.0232599
0.0274255
0.0330588
0.0396831
0.0480653
0.0587229
0.0718676
0.0885255
0.109782
0.137287
0.173679
0.22259
0.289972
0.385962
0.526479
0.742945
1.07649
1.66229
2.57364
4.62979
7.7343
18.1205
35.3418
39.1426
37.4457
36.8022
37.4806
38.3181
38.5314
38.022
36.8879
35.0547
32.5461
29.3062
25.4113
20.1249
14.874
3.46732
0.0170438
0.0146528
0.0119589
0.00964179
0.0074463
0.00546122
0.00385368
0.00288571
0.00301442
0.00406842
0.00602908
0.00902993
0.0133935
0.0196311
0.028411
0.0408066
0.0586479
0.0853237
0.127039
0.195012
0.31155
0.51772
0.911019
1.66813
3.31868
6.78687
15.1689
31.2597
44.3001
49.8968
51.4845
51.7444
51.4465
50.7188
49.5986
48.1473
46.0242
43.5516
35.671
0.00310783
0.00309064
0.0030553
0.00296716
0.00283074
0.00267388
0.00248873
0.00228049
0.00207435
0.00187219
0.00167942
0.0015454
0.00152625
0.00167435
0.00216515
0.00337202
0.00632888
0.0130827
0.0314276
0.0768477
0.227402
0.627759
1.93041
6.18153
12.0841
18.1823
23.9316
28.0042
28.8118
26.4328
22.5255
18.571
15.3637
12.9058
11.0177
9.52019
8.47359
7.38252
7.92786
0.00307956
0.00303774
0.00295234
0.00282577
0.00265274
0.00242462
0.00215698
0.00189741
0.00165755
0.00141955
0.00119306
0.000996985
0.000831333
0.000690825
0.000571746
0.000471409
0.000386288
0.000314254
0.000251126
0.000193457
0.000136416
8.06509e-05
2.79548e-05
4.55804e-06
1.15757e-05
0.00159484
0.00853535
0.068798
0.231381
0.451679
0.673312
0.867637
1.031
1.17475
1.30929
1.44789
1.59452
1.92177
2.67261
0.0020841
0.00206765
0.00202104
0.00194977
0.00187524
0.00179334
0.00171056
0.00163611
0.00157209
0.00152243
0.00148401
0.00146197
0.00145603
0.00146854
0.00147391
0.00142591
0.00121867
0.00116126
0.000133495
0.006403
4.05283e-08
0.00145784
3.21579e-05
0.01686
0.18474
0.654684
1.66015
3.72228
7.34842
12.1358
16.4548
18.5719
18.1504
16.2946
14.1363
12.1106
10.5236
8.71213
9.78877
0.00210033
0.00209775
0.00209218
0.00205494
0.00198887
0.00187795
0.00172499
0.00155029
0.00138793
0.00122095
0.00104126
0.000867261
0.000711536
0.000577444
0.000466737
0.000377354
0.000307695
0.000254863
0.000216436
0.000188832
0.000169812
0.000157469
0.000150687
0.000146967
0.000146792
0.000145848
0.000155143
9.22799e-05
0.00063527
0.00417471
0.011831
0.0247025
0.0551031
0.114971
0.203527
0.31202
0.429951
0.514637
0.878464
0.00175911
0.00176275
0.0017539
0.0017393
0.00170916
0.00166431
0.0016084
0.00153859
0.0014588
0.00137056
0.00127574
0.00117566
0.00107128
0.000964519
0.000856341
0.000742388
0.000628619
0.000534974
0.000405956
0.000250318
2.95885e-05
0.000144107
1.14473e-05
0.00427389
0.0218185
0.000334922
0.00396951
0.00581572
0.0417326
0.36899
1.59893
4.34523
8.13819
11.2872
12.6416
12.4567
11.7135
10.2517
11.0396
0.00174024
0.00171165
0.00166677
0.00161272
0.00154495
0.00145622
0.00135262
0.00124237
0.00112759
0.00100303
0.000874276
0.000753563
0.000646913
0.000555001
0.000477343
0.000412239
0.000358677
0.000315054
0.000280043
0.000251541
0.000228381
0.000208929
0.000191496
0.000173164
0.00015433
0.000138675
0.000126849
0.00011835
0.000108056
9.47434e-05
7.12408e-05
4.48695e-05
0.000344018
0.000594213
0.00215637
0.0115554
0.037911
0.0958124
0.348924
0.0013197
0.00131737
0.00130709
0.00128874
0.00126036
0.00122188
0.00117537
0.00112153
0.00106214
0.00100082
0.000939534
0.00088076
0.000827117
0.000780236
0.000741245
0.000708517
0.000673903
0.000630667
0.000589628
0.000517966
0.000404895
0.000199087
2.40789e-05
4.90168e-06
0
1.69097e-05
0.00090979
0.00543005
0.0270238
0.0139874
0.030013
0.0530596
0.334771
1.95314
5.01048
8.11512
10.0751
10.4412
11.6208
0.00131629
0.00130698
0.00128844
0.00125875
0.0012169
0.00115761
0.00108665
0.00101046
0.000929236
0.000840076
0.000747321
0.000656557
0.000571318
0.000493084
0.000422907
0.000361231
0.000308206
0.000263599
0.00022689
0.000196963
0.000172801
0.0001531
0.00013646
0.00012059
0.000104463
8.95693e-05
7.77438e-05
6.95748e-05
6.59906e-05
6.09814e-05
7.45056e-05
1.76083e-05
0.000114438
0.00053484
0.00131267
0.00259105
0.000945937
0.00296481
0.0676243
0.00108173
0.00108634
0.0010859
0.00108202
0.0010714
0.00105417
0.0010311
0.00100127
0.000965303
0.000924164
0.000878212
0.00082853
0.000776293
0.000722428
0.000667889
0.000611356
0.000549732
0.000486503
0.000427623
0.000375998
0.000340114
0.000289459
0.000237692
6.30466e-05
1.09399e-05
5.01018e-06
1.03232e-06
0
0
0.00199269
0.00717279
0.0370053
0.00678268
0.0904092
0.198766
1.85817
5.182
8.34895
11.0889
0.00107192
0.00105838
0.00103867
0.00101266
0.000979294
0.000935424
0.000884931
0.000830755
0.00077185
0.00070673
0.00063853
0.000570648
0.000505688
0.000445164
0.000390128
0.000341266
0.000298793
0.000262587
0.000232227
0.000206933
0.00018582
0.000167768
0.000151534
0.000135382
0.00011861
0.000102642
8.87136e-05
7.70578e-05
6.72828e-05
5.91569e-05
5.21931e-05
4.58576e-05
3.63154e-05
2.33129e-05
1.64946e-08
4.6634e-07
0.000159873
0.000681658
0.00768963
0.000875045
0.000878888
0.000879501
0.000877277
0.000870288
0.000858188
0.000841266
0.000819023
0.000791654
0.000759917
0.000724353
0.000685853
0.000645604
0.000604751
0.000564248
0.000525449
0.000490277
0.000457514
0.000424078
0.000389101
0.000355115
0.000327239
0.000308007
0.000256756
0.000171497
8.85667e-05
1.55203e-05
5.43322e-06
3.09862e-06
2.94167e-07
0
0
0.00088346
0.0285825
0.0217536
0.127621
0.851697
4.25813
8.89686
0.000867861
0.00085813
0.000843975
0.000824484
0.0007992
0.000766756
0.000730294
0.000690553
0.000646789
0.0005988
0.000548359
0.000497371
0.000447384
0.000399462
0.000354502
0.000313221
0.000276015
0.000243126
0.000214554
0.000189962
0.000168877
0.000150593
0.000134209
0.000118464
0.000102699
8.77616e-05
7.46306e-05
6.3579e-05
5.43788e-05
4.69097e-05
4.13221e-05
3.76875e-05
3.55827e-05
3.31423e-05
3.03124e-05
1.38622e-05
1.33853e-06
6.50572e-08
0.000227972
0.000725262
0.000730214
0.000733154
0.000734339
0.000732328
0.000726835
0.00071808
0.000705418
0.000688847
0.000668719
0.000645006
0.000618167
0.000588731
0.000557179
0.000524072
0.000490089
0.000454799
0.000417296
0.000379327
0.000343353
0.000311401
0.000286224
0.000268659
0.000256434
0.000232474
0.000193339
0.000144223
9.54971e-05
5.65247e-05
4.6392e-06
3.11939e-06
1.38142e-07
0
0
0.00314418
0.0540222
0.0990696
0.968616
5.33131
0.000717824
0.000708859
0.000696841
0.000680892
0.000660906
0.000636139
0.000609081
0.000579256
0.000546231
0.000510403
0.000472577
0.000433941
0.000395447
0.000357816
0.000321783
0.000288046
0.00025703
0.000229108
0.000204419
0.000182818
0.000163961
0.000147316
0.00013216
0.000117543
0.000102968
8.90602e-05
7.65845e-05
6.57539e-05
5.63414e-05
4.81376e-05
4.10841e-05
3.50462e-05
2.98821e-05
2.5473e-05
2.2394e-05
1.9585e-05
1.38966e-05
1.57155e-06
1.60993e-05
0.000604995
0.000609762
0.000613237
0.000615406
0.000615327
0.000612687
0.000607547
0.000599339
0.000587992
0.00057361
0.000556147
0.00053585
0.000513076
0.000488193
0.000461741
0.000434143
0.000406032
0.000378499
0.000351643
0.00032544
0.000300279
0.000277296
0.000257398
0.000240349
0.000222289
0.000200173
0.000175814
0.00014961
0.00012698
9.28383e-05
6.17213e-05
2.77465e-06
1.65888e-06
0
0
0
0.0311992
0.133951
2.12188
0.00059846
0.000590895
0.00058112
0.000568138
0.00055231
0.000533198
0.000512599
0.000489782
0.000464553
0.000437429
0.000408793
0.00037932
0.000349582
0.00032002
0.000291145
0.000263487
0.000237461
0.000213409
0.00019155
0.000171913
0.000154351
0.000138529
0.00012394
0.000109948
9.6203e-05
8.3106e-05
7.12875e-05
6.09864e-05
5.20696e-05
4.43844e-05
3.78967e-05
3.26493e-05
2.86478e-05
2.58588e-05
2.42677e-05
2.44881e-05
2.6204e-05
2.77137e-05
1.05264e-06
0.000510029
0.000514702
0.0005186
0.000521616
0.000523019
0.000522656
0.000520477
0.000515998
0.000509146
0.000499916
0.000488157
0.000473984
0.000457565
0.000439083
0.00041883
0.000397099
0.000374341
0.000350516
0.00032579
0.000301231
0.000278116
0.0002574
0.000239292
0.000222355
0.000204171
0.000183523
0.000162153
0.000143343
0.000128989
0.000117392
0.000106327
7.77173e-05
3.2981e-05
2.8786e-06
0
0
0
0.0466547
0.547366
0.000504046
0.000497454
0.000489239
0.000478447
0.000465687
0.000450771
0.000434721
0.000416956
0.000397494
0.000376713
0.000354803
0.000332169
0.000309104
0.000285846
0.00026277
0.000240264
0.000218645
0.000198263
0.000179336
0.000161975
0.000146147
0.000131647
0.000118131
0.000105173
9.2511e-05
8.04351e-05
6.9441e-05
5.97417e-05
5.12409e-05
4.37994e-05
3.73642e-05
3.19079e-05
2.73542e-05
2.37766e-05
2.11663e-05
2.06542e-05
2.03406e-05
3.41188e-05
1.42032e-05
0.000433028
0.000437404
0.000441327
0.00044464
0.000446763
0.000447639
0.000447119
0.00044487
0.000440744
0.000434714
0.000426595
0.000416416
0.000404238
0.000390138
0.000374325
0.000357033
0.000338523
0.000319215
0.000299546
0.000279908
0.000260929
0.000243102
0.000226628
0.000210651
0.000193363
0.000173812
0.000153326
0.000134761
0.000119911
0.00010925
0.000101505
9.70046e-05
8.51236e-05
4.95365e-05
3.28087e-06
0
0
0.00248545
0.139838
0.00042767
0.000421963
0.00041507
0.000406037
0.000395629
0.000383848
0.000371123
0.000357086
0.000341919
0.000325842
0.000308912
0.000291388
0.000273426
0.000255133
0.000236715
0.000218446
0.000200562
0.000183332
0.00016699
0.000151668
0.000137391
0.000124068
0.000111493
9.93956e-05
8.76216e-05
7.63919e-05
6.60894e-05
5.69195e-05
4.88413e-05
4.17632e-05
3.56569e-05
3.05312e-05
2.63836e-05
2.32726e-05
2.11459e-05
2.0881e-05
2.07843e-05
2.94758e-05
3.68246e-05
0.000370139
0.000374215
0.000378044
0.000381453
0.000384013
0.000385677
0.000386322
0.000385638
0.000383515
0.000379896
0.000374596
0.000367599
0.000358897
0.000348511
0.00033654
0.000323122
0.000308461
0.000292857
0.000276422
0.000259518
0.000242893
0.000227112
0.000212306
0.000197838
0.000182342
0.000164984
0.000146622
0.000129376
0.000114785
0.000103111
9.36786e-05
8.76408e-05
8.48148e-05
8.16599e-05
5.33829e-05
2.63494e-06
0
0.000801808
0.0486222
0.000365343
0.000360343
0.000354505
0.000346896
0.000338316
0.000328869
0.000318642
0.000307426
0.000295483
0.000282904
0.000269714
0.000256064
0.000242014
0.000227571
0.000212878
0.000198095
0.000183365
0.000168907
0.0001549
0.000141506
0.000128794
0.000116739
0.000105212
9.406e-05
8.32287e-05
7.28825e-05
6.33237e-05
5.47371e-05
4.71149e-05
4.03924e-05
3.45416e-05
2.95682e-05
2.54479e-05
2.22382e-05
1.99607e-05
1.93692e-05
1.9584e-05
2.51702e-05
4.02115e-05
0.000318152
0.000321906
0.000325546
0.000328899
0.000331631
0.000333718
0.000335061
0.000335382
0.000334582
0.0003326
0.00032926
0.000324526
0.000318349
0.000310697
0.000301626
0.000291219
0.000279592
0.000267004
0.000253648
0.000239779
0.00022585
0.000212281
0.000199159
0.000186072
0.000172102
0.000156644
0.00014032
0.000124756
0.000111241
9.99015e-05
9.0237e-05
8.22315e-05
7.67071e-05
7.46208e-05
7.84464e-05
4.02799e-05
5.68149e-08
0.000259012
0.0161449
0.000313885
0.000309494
0.000304504
0.000298069
0.00029094
0.000283256
0.000274942
0.000265889
0.00025639
0.000246466
0.000236105
0.000225389
0.000214337
0.000202922
0.000191184
0.000179224
0.000167131
0.000155056
0.000143137
0.000131508
0.000120258
0.000109401
9.88866e-05
8.86514e-05
7.86955e-05
6.91653e-05
6.02966e-05
5.22586e-05
4.50718e-05
3.86995e-05
3.31293e-05
2.83809e-05
2.44543e-05
2.14075e-05
1.92633e-05
1.86309e-05
1.88961e-05
2.31752e-05
3.69553e-05
0.000274828
0.000278254
0.000281666
0.000284888
0.000287653
0.000289972
0.000291734
0.000292707
0.000292819
0.000291993
0.000290086
0.000287033
0.000282789
0.000277303
0.000270577
0.000262647
0.000253575
0.00024356
0.000232729
0.000221233
0.000209412
0.000197683
0.000186127
0.000174453
0.000162002
0.000148316
0.000133854
0.000119898
0.000107564
9.70296e-05
8.79317e-05
8.00005e-05
7.33738e-05
6.85137e-05
6.75646e-05
8.14689e-05
7.87931e-08
2.67753e-05
0.00404919
0.000271014
0.000267159
0.00026285
0.000257386
0.000251423
0.000245087
0.000238248
0.000230896
0.000223267
0.000215362
0.000207153
0.000198693
0.000189962
0.000180897
0.000171519
0.000161856
0.000151946
0.000141896
0.000131808
0.000121783
0.000111898
0.000102202
9.26906e-05
8.33697e-05
7.42769e-05
6.55388e-05
5.73536e-05
4.98696e-05
4.31257e-05
3.71087e-05
3.1816e-05
2.72717e-05
2.34756e-05
2.0485e-05
1.83329e-05
1.75936e-05
1.7751e-05
2.1457e-05
3.32435e-05
0.000238428
0.000241534
0.000244705
0.000247738
0.000250445
0.000252854
0.000254832
0.000256208
0.00025692
0.000256887
0.000255993
0.000254175
0.000251368
0.000247512
0.00024258
0.00023659
0.000229576
0.000221648
0.000212947
0.000203574
0.000193709
0.000183713
0.000173658
0.00016334
0.00015231
0.000140232
0.000127437
0.00011493
0.000103674
9.39289e-05
8.54543e-05
7.80818e-05
7.16271e-05
6.68127e-05
6.01863e-05
7.50076e-05
3.7961e-05
3.60074e-07
0.000267746
0.000235011
0.00023162
0.000227882
0.000223209
0.000218192
0.000212907
0.000207233
0.000201213
0.000195036
0.000188688
0.000182139
0.000175408
0.000168467
0.000161249
0.000153732
0.000145926
0.000137827
0.000129488
0.000120978
0.000112375
0.000103754
9.51653e-05
8.66292e-05
7.81766e-05
6.98914e-05
6.19033e-05
5.43711e-05
4.74237e-05
4.11133e-05
3.54459e-05
3.04297e-05
2.6096e-05
2.24543e-05
1.9565e-05
1.74603e-05
1.66606e-05
1.67203e-05
1.98515e-05
2.99849e-05
0.000207627
0.000210443
0.000213363
0.000216188
0.000218792
0.000221189
0.000223267
0.00022488
0.00022598
0.000226493
0.000226314
0.000225383
0.000223644
0.000221027
0.000217512
0.000213075
0.000207731
0.000201529
0.000194607
0.000187001
0.000178808
0.000170326
0.000161638
0.000152609
0.000142914
0.000132314
0.000121048
0.000109896
9.96678e-05
9.06686e-05
8.27662e-05
7.58878e-05
6.98298e-05
6.53585e-05
5.95447e-05
6.04061e-05
7.2311e-05
1.54784e-07
1.8377e-05
0.000204575
0.000201571
0.000198318
0.000194301
0.000190056
0.000185603
0.000180855
0.000175888
0.000170844
0.000165704
0.000160437
0.000155054
0.000149511
0.000143734
0.0001377
0.000131377
0.000124757
0.000117854
0.000110706
0.000103365
9.58856e-05
8.83212e-05
8.07046e-05
7.30975e-05
6.55943e-05
5.8322e-05
5.1415e-05
4.49902e-05
3.9107e-05
3.37861e-05
2.90446e-05
2.49187e-05
2.14226e-05
1.86168e-05
1.65365e-05
1.56601e-05
1.56297e-05
1.82544e-05
2.70313e-05
0.000181404
0.000183957
0.000186626
0.000189243
0.000191708
0.000194035
0.000196128
0.000197863
0.000199192
0.00020006
0.000200373
0.00020008
0.000199134
0.000197464
0.000195033
0.000191812
0.000187795
0.000183002
0.000177541
0.000171429
0.000164704
0.000157578
0.000150144
0.000142317
0.000133866
0.00012461
0.000114734
0.000104838
9.55939e-05
8.73214e-05
7.9975e-05
7.35189e-05
6.78769e-05
6.33184e-05
5.97877e-05
5.27727e-05
7.89293e-05
4.13095e-07
3.88928e-10
0.000178685
0.00017602
0.000173167
0.0001697
0.000166087
0.000162303
0.0001583
0.000154173
0.000150024
0.000145829
0.000141564
0.000137224
0.000132767
0.000128127
0.000123263
0.000118141
0.000112727
0.000107023
0.000101036
9.47984e-05
8.83475e-05
8.17227e-05
7.49657e-05
6.81512e-05
6.13868e-05
5.4787e-05
4.84757e-05
4.25553e-05
3.70883e-05
3.21073e-05
2.76372e-05
2.37174e-05
2.03688e-05
1.76529e-05
1.56059e-05
1.46635e-05
1.45509e-05
1.67266e-05
2.42944e-05
0.000158962
0.000161269
0.000163699
0.000166116
0.000168417
0.000170646
0.000172695
0.000174469
0.000175927
0.000177022
0.000177671
0.000177838
0.000177465
0.000176495
0.000174892
0.00017262
0.000169665
0.000166018
0.000161756
0.000156891
0.000151425
0.000145484
0.000139178
0.000132458
0.000125147
0.000117116
0.000108502
9.97675e-05
9.14641e-05
8.3905e-05
7.7114e-05
7.10672e-05
6.58132e-05
6.12224e-05
5.86055e-05
5.13247e-05
6.70443e-05
2.55401e-05
5.13531e-07
0.000156536
0.000154168
0.000151656
0.000148649
0.000145558
0.000142317
0.000138921
0.000135467
0.000132026
0.000128576
0.000125096
0.000121576
0.000117974
0.000114224
0.00011029
0.000106128
0.000101697
9.69845e-05
9.19814e-05
8.66965e-05
8.11567e-05
7.53939e-05
6.94413e-05
6.33664e-05
5.7283e-05
5.13174e-05
4.55725e-05
4.0137e-05
3.50747e-05
3.04262e-05
2.62227e-05
2.25059e-05
1.93026e-05
1.66734e-05
1.46564e-05
1.36501e-05
1.34613e-05
1.52634e-05
2.17565e-05
0.000139662
0.00014174
0.000143954
0.000146167
0.00014831
0.000150413
0.000152389
0.000154144
0.000155658
0.000156883
0.000157752
0.000158226
0.000158266
0.000157815
0.000156844
0.000155309
0.000153189
0.000150471
0.000147187
0.000143357
0.00013896
0.000134052
0.000128756
0.000123042
0.00011677
0.000109844
0.000102368
9.47e-05
8.72879e-05
8.04245e-05
7.41822e-05
6.85576e-05
6.36407e-05
5.92634e-05
5.64493e-05
5.16658e-05
5.4866e-05
5.15486e-05
6.13324e-06
0.000137493
0.000135386
0.000133165
0.00013055
0.000127886
0.000125097
0.000122197
0.000119287
0.000116412
0.000113555
0.000110695
0.000107819
0.000104888
0.000101842
9.8644e-05
9.52526e-05
9.16212e-05
8.7726e-05
8.35498e-05
7.90898e-05
7.43499e-05
6.93511e-05
6.41238e-05
5.87396e-05
5.33048e-05
4.79333e-05
4.272e-05
3.77452e-05
3.30718e-05
2.87456e-05
2.48023e-05
2.12846e-05
1.82253e-05
1.56827e-05
1.36972e-05
1.2634e-05
1.23753e-05
1.38643e-05
1.94105e-05
0.000122989
0.000124861
0.000126873
0.000128897
0.000130877
0.000132848
0.000134723
0.000136429
0.000137946
0.000139233
0.000140234
0.000140919
0.000141253
0.000141188
0.00014069
0.000139722
0.000138257
0.000136276
0.000133781
0.000130803
0.000127309
0.000123301
0.000118893
0.000114076
0.00010874
0.000102807
9.63558e-05
8.96613e-05
8.30849e-05
7.68925e-05
7.11849e-05
6.59889e-05
6.1378e-05
5.73281e-05
5.41406e-05
5.13124e-05
4.84565e-05
5.53473e-05
2.60235e-05
0.00012105
0.00011917
0.000117204
0.000114924
0.000112607
0.000110197
0.000107708
0.000105237
0.000102819
0.000100436
9.80687e-05
9.57026e-05
9.33013e-05
9.08147e-05
8.82039e-05
8.54288e-05
8.24459e-05
7.92255e-05
7.57402e-05
7.19783e-05
6.7938e-05
6.36247e-05
5.90573e-05
5.43028e-05
4.94633e-05
4.46419e-05
3.99266e-05
3.5389e-05
3.10892e-05
2.70747e-05
2.33848e-05
2.00621e-05
1.71443e-05
1.46869e-05
1.27329e-05
1.16179e-05
1.12953e-05
1.25326e-05
1.72612e-05
0.00010853
0.000110218
0.000112042
0.000113888
0.000115712
0.000117545
0.000119307
0.000120941
0.000122427
0.000123729
0.000124803
0.000125622
0.000126155
0.000126363
0.000126214
0.000125677
0.000124719
0.000123321
0.000121469
0.000119198
0.000116456
0.000113222
0.000109591
0.000105569
0.000101068
9.60199e-05
9.04856e-05
8.46741e-05
7.88753e-05
7.33244e-05
6.81352e-05
6.33622e-05
5.90528e-05
5.53085e-05
5.19929e-05
4.98804e-05
4.59209e-05
4.98286e-05
4.04745e-05
0.000106796
0.000105116
0.000103374
0.000101379
9.93536e-05
9.72578e-05
9.51126e-05
9.30035e-05
9.09556e-05
8.89536e-05
8.69772e-05
8.50146e-05
8.30357e-05
8.09923e-05
7.88507e-05
7.65708e-05
7.41119e-05
7.14448e-05
6.85383e-05
6.53711e-05
6.19302e-05
5.82188e-05
5.42471e-05
5.00668e-05
4.57687e-05
4.14551e-05
3.72053e-05
3.30804e-05
2.91364e-05
2.54214e-05
2.19764e-05
1.88435e-05
1.60641e-05
1.36902e-05
1.17685e-05
1.06082e-05
1.02279e-05
1.1264e-05
1.52944e-05
9.5948e-05
9.74687e-05
9.91228e-05
0.000100801
0.000102477
0.000104173
0.000105818
0.000107365
0.000108796
0.000110082
0.000111182
0.000112077
0.000112741
0.000113139
0.000113249
0.000113034
0.00011247
0.000111532
0.000110199
0.000108495
0.000106373
0.000103799
0.000100841
9.75146e-05
9.37524e-05
8.94915e-05
8.47735e-05
7.97594e-05
7.46789e-05
6.97346e-05
6.50458e-05
6.0683e-05
5.66841e-05
5.31915e-05
4.99728e-05
4.7861e-05
4.46022e-05
4.42685e-05
4.3766e-05
9.43986e-05
9.28923e-05
9.13448e-05
8.95937e-05
8.7817e-05
8.59878e-05
8.41297e-05
8.23179e-05
8.05715e-05
7.88756e-05
7.72169e-05
7.55796e-05
7.39354e-05
7.22441e-05
7.04753e-05
6.85949e-05
6.65623e-05
6.43472e-05
6.19192e-05
5.92534e-05
5.63321e-05
5.31452e-05
4.9698e-05
4.60332e-05
4.22337e-05
3.83891e-05
3.45695e-05
3.08305e-05
2.72227e-05
2.37932e-05
2.05837e-05
1.76355e-05
1.49909e-05
1.2699e-05
1.081e-05
9.61021e-06
9.18007e-06
1.00605e-05
1.35042e-05
8.49649e-05
8.63356e-05
8.78323e-05
8.9358e-05
9.08939e-05
9.24551e-05
9.39837e-05
9.54343e-05
9.67979e-05
9.80434e-05
9.91404e-05
0.000100072
0.000100817
0.000101345
0.000101636
0.000101661
0.000101394
0.000100812
9.989e-05
9.86426e-05
9.70317e-05
9.50156e-05
9.26358e-05
8.99143e-05
8.67991e-05
8.32305e-05
7.92352e-05
7.49365e-05
7.05142e-05
6.614e-05
6.19291e-05
5.79604e-05
5.42743e-05
5.10024e-05
4.79739e-05
4.56976e-05
4.31762e-05
4.06326e-05
4.15954e-05
8.35802e-05
8.22296e-05
8.08516e-05
7.93092e-05
7.77443e-05
7.61426e-05
7.45241e-05
7.29601e-05
7.1462e-05
7.00166e-05
6.86113e-05
6.72344e-05
6.58586e-05
6.4451e-05
6.29837e-05
6.14227e-05
5.97347e-05
5.78912e-05
5.58598e-05
5.36145e-05
5.11347e-05
4.84048e-05
4.54215e-05
4.22194e-05
3.88693e-05
3.54526e-05
3.2028e-05
2.86477e-05
2.53565e-05
2.2199e-05
1.92156e-05
1.64459e-05
1.39321e-05
1.17205e-05
9.86442e-06
8.63043e-06
8.15651e-06
8.92245e-06
1.1884e-05
7.53518e-05
7.6586e-05
7.79389e-05
7.93262e-05
8.07276e-05
8.2162e-05
8.35747e-05
8.49283e-05
8.62123e-05
8.74043e-05
8.84744e-05
8.94131e-05
9.01984e-05
9.08094e-05
9.12276e-05
9.1426e-05
9.1383e-05
9.10751e-05
9.04791e-05
8.95986e-05
8.8404e-05
8.68558e-05
8.49663e-05
8.27659e-05
8.02101e-05
7.72453e-05
7.38859e-05
7.0225e-05
6.64005e-05
6.25567e-05
5.87991e-05
5.52089e-05
5.18294e-05
4.87701e-05
4.59358e-05
4.35682e-05
4.13855e-05
3.82325e-05
3.82656e-05
7.41108e-05
7.29028e-05
7.16723e-05
7.03103e-05
6.89281e-05
6.75199e-05
6.61049e-05
6.47458e-05
6.34523e-05
6.22119e-05
6.10151e-05
5.98494e-05
5.86912e-05
5.75096e-05
5.62817e-05
5.49798e-05
5.35725e-05
5.20327e-05
5.03298e-05
4.84379e-05
4.63341e-05
4.39985e-05
4.14219e-05
3.86294e-05
3.56818e-05
3.26501e-05
2.95902e-05
2.65421e-05
2.35473e-05
2.06472e-05
1.78796e-05
1.52817e-05
1.28953e-05
1.07627e-05
8.93934e-06
7.6755e-06
7.16419e-06
7.84856e-06
1.04206e-05
6.69155e-05
6.80265e-05
6.92486e-05
7.05094e-05
7.17861e-05
7.31006e-05
7.44013e-05
7.56567e-05
7.68593e-05
7.79869e-05
7.90172e-05
7.99407e-05
8.07401e-05
8.13987e-05
8.18984e-05
8.22203e-05
8.2342e-05
8.22425e-05
8.19011e-05
8.13101e-05
8.04544e-05
7.92893e-05
7.78107e-05
7.60525e-05
7.39807e-05
7.15412e-05
6.87389e-05
6.56425e-05
6.23578e-05
5.90015e-05
5.56698e-05
5.244e-05
4.9357e-05
4.65118e-05
4.38527e-05
4.14931e-05
3.93784e-05
3.62672e-05
3.5228e-05
6.58029e-05
6.47213e-05
6.36208e-05
6.24159e-05
6.1192e-05
5.99489e-05
5.8708e-05
5.75223e-05
5.63988e-05
5.53279e-05
5.43006e-05
5.3305e-05
5.23208e-05
5.1324e-05
5.0292e-05
4.9199e-05
4.80192e-05
4.67279e-05
4.52974e-05
4.36998e-05
4.19131e-05
3.99153e-05
3.76935e-05
3.52638e-05
3.26777e-05
2.99942e-05
2.72651e-05
2.45226e-05
2.18041e-05
1.91457e-05
1.65831e-05
1.41507e-05
1.1888e-05
9.83316e-06
8.04208e-06
6.75139e-06
6.20767e-06
6.84216e-06
9.10817e-06
5.94938e-05
6.04952e-05
6.1599e-05
6.2742e-05
6.39046e-05
6.51056e-05
6.63001e-05
6.74586e-05
6.85789e-05
6.96376e-05
7.06184e-05
7.15119e-05
7.23062e-05
7.29842e-05
7.35341e-05
7.39393e-05
7.41794e-05
7.42362e-05
7.40896e-05
7.37271e-05
7.31414e-05
7.22918e-05
7.11571e-05
6.97742e-05
6.81133e-05
6.61239e-05
6.38036e-05
6.12026e-05
5.84016e-05
5.54913e-05
5.25556e-05
4.96661e-05
4.68683e-05
4.42333e-05
4.17387e-05
3.94407e-05
3.73109e-05
3.43643e-05
3.26302e-05
5.84981e-05
5.75282e-05
5.65421e-05
5.54746e-05
5.43885e-05
5.32879e-05
5.21963e-05
5.11564e-05
5.01759e-05
4.92454e-05
4.83583e-05
4.75028e-05
4.66613e-05
4.58127e-05
4.49387e-05
4.40169e-05
4.3023e-05
4.19347e-05
4.07285e-05
3.93782e-05
3.78599e-05
3.61503e-05
3.42338e-05
3.21212e-05
2.98546e-05
2.74863e-05
2.50564e-05
2.25949e-05
2.01325e-05
1.77009e-05
1.53333e-05
1.30599e-05
1.09169e-05
8.93909e-06
7.1807e-06
5.8649e-06
5.29221e-06
5.90387e-06
7.93558e-06
5.29521e-05
5.38545e-05
5.48518e-05
5.58867e-05
5.69436e-05
5.80394e-05
5.91323e-05
6.01994e-05
6.12369e-05
6.22256e-05
6.31503e-05
6.40047e-05
6.47787e-05
6.54582e-05
6.60345e-05
6.64917e-05
6.68131e-05
6.69841e-05
6.69846e-05
6.6801e-05
6.6429e-05
6.58326e-05
6.49844e-05
6.39142e-05
6.25999e-05
6.09945e-05
5.909e-05
5.69215e-05
5.45487e-05
5.20425e-05
4.9472e-05
4.69009e-05
4.4374e-05
4.19484e-05
3.96095e-05
3.7397e-05
3.52629e-05
3.24489e-05
3.03284e-05
5.20611e-05
5.11916e-05
5.03068e-05
4.93591e-05
4.83935e-05
4.74162e-05
4.64527e-05
4.55383e-05
4.46785e-05
4.38654e-05
4.30936e-05
4.23536e-05
4.16295e-05
4.09028e-05
4.01568e-05
3.93737e-05
3.8532e-05
3.76126e-05
3.65915e-05
3.5446e-05
3.41539e-05
3.26912e-05
3.10391e-05
2.92048e-05
2.72209e-05
2.51325e-05
2.29732e-05
2.07675e-05
1.85408e-05
1.63215e-05
1.41378e-05
1.20168e-05
9.99046e-06
8.08935e-06
6.36377e-06
5.0229e-06
4.42254e-06
5.03644e-06
6.89565e-06
4.71759e-05
4.7988e-05
4.88895e-05
4.98252e-05
5.07852e-05
5.17837e-05
5.27813e-05
5.37618e-05
5.4718e-05
5.56368e-05
5.65026e-05
5.73119e-05
5.80544e-05
5.87221e-05
5.9305e-05
5.97907e-05
6.01669e-05
6.04176e-05
6.05282e-05
6.04824e-05
6.02787e-05
5.98834e-05
5.92692e-05
5.84569e-05
5.74324e-05
5.61527e-05
5.46038e-05
5.28103e-05
5.08143e-05
4.86697e-05
4.64336e-05
4.41597e-05
4.18857e-05
3.9665e-05
3.74804e-05
3.53633e-05
3.32532e-05
3.05448e-05
2.82174e-05
4.63773e-05
4.55981e-05
4.48045e-05
4.39613e-05
4.31016e-05
4.22331e-05
4.13795e-05
4.05723e-05
3.98149e-05
3.91007e-05
3.84257e-05
3.77811e-05
3.71531e-05
3.65269e-05
3.58874e-05
3.52182e-05
3.45015e-05
3.37196e-05
3.28523e-05
3.18784e-05
3.07759e-05
2.95226e-05
2.80984e-05
2.65058e-05
2.47713e-05
2.29319e-05
2.10156e-05
1.90425e-05
1.70333e-05
1.5012e-05
1.30023e-05
1.10277e-05
9.11604e-06
7.29218e-06
5.60038e-06
4.23276e-06
3.60221e-06
4.24249e-06
5.9799e-06
4.2066e-05
4.27977e-05
4.36108e-05
4.44574e-05
4.53279e-05
4.62355e-05
4.71457e-05
4.80432e-05
4.89223e-05
4.97715e-05
5.05779e-05
5.13379e-05
5.20447e-05
5.26903e-05
5.32669e-05
5.37652e-05
5.41732e-05
5.44782e-05
5.46677e-05
5.47257e-05
5.46505e-05
5.44141e-05
5.3988e-05
5.33893e-05
5.26043e-05
5.15956e-05
5.03481e-05
4.88768e-05
4.72103e-05
4.53877e-05
4.34537e-05
4.14537e-05
3.94195e-05
3.73919e-05
3.53632e-05
3.33437e-05
3.12825e-05
2.86766e-05
2.62473e-05
4.13498e-05
4.06524e-05
3.99406e-05
3.91882e-05
3.84223e-05
3.76496e-05
3.68916e-05
3.61767e-05
3.55069e-05
3.48773e-05
3.42839e-05
3.37191e-05
3.31714e-05
3.26274e-05
3.20756e-05
3.15006e-05
3.08869e-05
3.02192e-05
2.94796e-05
2.86488e-05
2.77069e-05
2.66313e-05
2.54026e-05
2.40197e-05
2.25029e-05
2.08849e-05
1.91867e-05
1.74247e-05
1.56153e-05
1.37779e-05
1.19329e-05
1.0099e-05
8.30012e-06
6.55506e-06
4.89975e-06
3.50277e-06
2.83474e-06
3.5269e-06
5.18182e-06
3.75385e-05
3.81981e-05
3.8931e-05
3.96963e-05
4.04854e-05
4.1309e-05
4.21383e-05
4.29578e-05
4.37644e-05
4.45465e-05
4.52942e-05
4.60039e-05
4.66704e-05
4.72864e-05
4.78475e-05
4.83437e-05
4.87676e-05
4.91075e-05
4.93517e-05
4.94855e-05
4.95077e-05
4.93944e-05
4.9119e-05
4.86923e-05
4.81038e-05
4.73209e-05
4.63271e-05
4.51298e-05
4.3748e-05
4.22092e-05
4.05468e-05
3.87961e-05
3.69848e-05
3.51439e-05
3.3266e-05
3.13524e-05
2.93574e-05
2.68643e-05
2.4405e-05
3.68967e-05
3.62721e-05
3.56341e-05
3.49615e-05
3.42789e-05
3.35905e-05
3.29163e-05
3.22813e-05
3.16874e-05
3.11295e-05
3.06052e-05
3.01085e-05
2.96285e-05
2.91532e-05
2.86736e-05
2.81764e-05
2.76482e-05
2.7076e-05
2.64431e-05
2.57319e-05
2.49247e-05
2.40001e-05
2.29388e-05
2.17379e-05
2.04132e-05
1.89901e-05
1.74871e-05
1.59158e-05
1.42893e-05
1.26227e-05
1.09331e-05
9.23533e-06
7.54831e-06
5.88572e-06
4.2723e-06
2.84378e-06
2.12297e-06
2.89627e-06
4.49603e-06
3.35222e-05
3.4116e-05
3.47769e-05
3.54678e-05
3.61823e-05
3.69296e-05
3.76833e-05
3.84306e-05
3.91689e-05
3.9887e-05
4.05771e-05
4.12362e-05
4.186e-05
4.24429e-05
4.29811e-05
4.34677e-05
4.38948e-05
4.42528e-05
4.45319e-05
4.47199e-05
4.48141e-05
4.47948e-05
4.46384e-05
4.43494e-05
4.39198e-05
4.33221e-05
4.25399e-05
4.1574e-05
4.04366e-05
3.91456e-05
3.77247e-05
3.62009e-05
3.45946e-05
3.29303e-05
3.12001e-05
2.93995e-05
2.74829e-05
2.51102e-05
2.26799e-05
3.29468e-05
3.23871e-05
3.18154e-05
3.12144e-05
3.0605e-05
2.99912e-05
2.93909e-05
2.88256e-05
2.82974e-05
2.78016e-05
2.73372e-05
2.68971e-05
2.64737e-05
2.60575e-05
2.56389e-05
2.52067e-05
2.47498e-05
2.42566e-05
2.37126e-05
2.31021e-05
2.24086e-05
2.1613e-05
2.06954e-05
1.96514e-05
1.84943e-05
1.72438e-05
1.59151e-05
1.45162e-05
1.30569e-05
1.15494e-05
1.00066e-05
8.44076e-06
6.86584e-06
5.29086e-06
3.72842e-06
2.27079e-06
1.46801e-06
2.36099e-06
3.91735e-06
2.99543e-05
3.0489e-05
3.10842e-05
3.17079e-05
3.23541e-05
3.30312e-05
3.37154e-05
3.43957e-05
3.50698e-05
3.57273e-05
3.63621e-05
3.69717e-05
3.75523e-05
3.81e-05
3.86112e-05
3.90804e-05
3.95012e-05
3.98656e-05
4.01657e-05
4.03906e-05
4.05362e-05
4.05873e-05
4.05218e-05
4.03413e-05
4.00389e-05
3.95921e-05
3.8984e-05
3.82126e-05
3.72832e-05
3.62066e-05
3.49985e-05
3.36782e-05
3.22609e-05
3.07623e-05
2.91759e-05
2.74899e-05
2.5666e-05
2.34242e-05
2.10631e-05
2.94384e-05
2.89374e-05
2.84249e-05
2.78876e-05
2.73435e-05
2.67959e-05
2.62607e-05
2.5757e-05
2.52862e-05
2.48444e-05
2.44309e-05
2.40406e-05
2.36659e-05
2.32987e-05
2.29313e-05
2.25541e-05
2.21574e-05
2.17308e-05
2.12614e-05
2.07361e-05
2.01392e-05
1.94527e-05
1.86585e-05
1.77509e-05
1.67397e-05
1.56419e-05
1.44683e-05
1.32248e-05
1.19186e-05
1.05589e-05
9.15543e-06
7.71742e-06
6.25557e-06
4.77508e-06
3.27796e-06
1.80704e-06
8.71994e-07
1.93572e-06
3.44147e-06
2.67811e-05
2.72624e-05
2.77979e-05
2.83608e-05
2.89448e-05
2.95576e-05
3.01783e-05
3.07967e-05
3.14108e-05
3.20119e-05
3.25941e-05
3.31557e-05
3.36935e-05
3.42044e-05
3.46857e-05
3.51332e-05
3.55414e-05
3.59041e-05
3.6214e-05
3.64609e-05
3.6641e-05
3.67429e-05
3.67468e-05
3.66499e-05