/*--------------------------------*- C++ -*----------------------------------*\
| =========                 |                                                 |
| \\      /  F ield         | OpenFOAM: The Open Source CFD Toolbox           |
|  \\    /   O peration     | Version:  2312                                  |
|   \\  /    A nd           | Website:  www.openfoam.com                      |
|    \\/     M anipulation  |                                                 |
\*---------------------------------------------------------------------------*/
FoamFile
{
    version     2.0;
    format      ascii;
    arch        "LSB;label=32;scalar=64";
    class       volSymmTensorField;
    location    "300";
    object      turbulenceProperties:R;
}
// * * * * * * * * * * * * * * * * * * * * * * * * * * * * * * * * * * * * * //

dimensions      [0 2 -2 0 0 0 0];

internalField   nonuniform List<symmTensor> 
10720
(
(0.0145029 0.00307005 -1.19797e-21 0.0120439 -4.49006e-20 0.0134211)
(0.0172915 0.00364718 7.98101e-22 0.0136485 5.09428e-20 0.0155798)
(0.0210845 0.00423585 1.24153e-20 0.0153298 5.24974e-20 0.0184366)
(0.0262576 0.00499787 6.03296e-20 0.017623 4.92569e-19 0.022237)
(0.0326304 0.00571662 -2.53367e-19 0.020057 -1.01517e-18 0.0266788)
(0.0409645 0.00622706 -3.1002e-19 0.0227869 -6.31932e-19 0.0323792)
(0.0517461 0.00649735 1.1249e-19 0.0261227 1.0874e-20 0.039577)
(0.0652074 0.00618303 6.25786e-20 0.0300909 9.89479e-20 0.0484369)
(0.0822098 0.00491801 1.66167e-19 0.0351382 -1.34224e-19 0.0597031)
(0.103594 0.00243384 -2.59321e-20 0.0419408 -2.60174e-20 0.0740285)
(0.130644 -0.00179552 3.01631e-18 0.0513722 1.21603e-18 0.0925576)
(0.165505 -0.00835679 -7.26584e-19 0.0648054 -5.5804e-19 0.117047)
(0.211136 -0.0181791 1.4834e-18 0.0841126 -2.22718e-18 0.149932)
(0.272412 -0.0328552 7.2936e-19 0.112314 1.56487e-18 0.195218)
(0.357631 -0.0550453 1.15225e-18 0.154569 -2.04284e-18 0.259725)
(0.479608 -0.0890804 4.7465e-19 0.219236 7.23242e-18 0.354114)
(0.663444 -0.143574 3.66026e-17 0.322887 1.94902e-17 0.499559)
(0.940396 -0.230819 -1.02946e-17 0.48908 1.38466e-17 0.723497)
(1.41783 -0.387249 -4.134e-18 0.789976 -6.71092e-17 1.11677)
(2.1411 -0.640053 2.21692e-18 1.27827 -4.33051e-19 1.7279)
(3.75275 -1.21303 -6.5858e-17 2.40093 -8.96707e-17 3.1059)
(6.10115 -2.11293 1.57243e-16 4.18516 4.77139e-16 5.18229)
(13.847 -5.13143 -2.57619e-16 10.2615 -9.32799e-16 12.1324)
(25.9895 -10.3101 4.53396e-16 21.0497 1.24382e-16 23.6445)
(27.6222 -11.6402 -2.48698e-16 24.527 -1.19331e-17 26.136)
(25.4894 -11.2216 2.09895e-17 24.4496 -1.28082e-15 24.9523)
(24.3888 -11.0394 2.70179e-16 24.7106 -6.4257e-17 24.505)
(24.3223 -11.2237 1.95554e-16 25.6765 4.12525e-16 24.9623)
(24.4095 -11.4383 1.14966e-15 26.6977 5.60346e-16 25.5291)
(24.1163 -11.4515 1.04779e-15 27.2671 4.51161e-15 25.6793)
(23.3906 -11.2376 -2.01183e-15 27.3036 -1.73996e-15 25.3498)
(22.3188 -10.8315 -2.17633e-15 26.8545 -3.02297e-15 24.6024)
(20.8767 -10.2184 -9.24865e-16 25.848 -3.97103e-15 23.3848)
(19.0927 -9.41208 -2.96416e-15 24.2867 -5.58214e-15 21.7127)
(16.9486 -8.40421 1.07422e-15 22.1121 2.92208e-15 19.5517)
(14.5059 -7.22588 1.80066e-16 19.3648 2.16265e-15 16.9518)
(11.3428 -5.67256 -4.60495e-17 15.4769 3.65659e-18 13.43)
(8.32967 -4.17103 -1.78663e-15 11.5007 -1.0787e-16 9.91775)
(1.83907 -0.926503 -3.59598e-16 2.7848 -1.68876e-15 2.31077)
(0.0120336 0.00257457 8.65669e-22 0.0106555 -3.09893e-21 0.0113985)
(0.0101338 0.00212536 -4.47246e-21 0.00934347 4.54184e-21 0.00982842)
(0.00808559 0.00164741 -2.32745e-20 0.00782995 -1.6186e-20 0.00800232)
(0.0063879 0.00124026 2.26895e-20 0.00644757 -3.24171e-20 0.00644812)
(0.00486531 0.000879613 -2.59024e-20 0.00505301 -2.57996e-20 0.00497428)
(0.00355386 0.000587013 -1.21199e-19 0.00372796 1.47161e-19 0.00364063)
(0.002531 0.000377674 3.68081e-20 0.00261813 1.23444e-19 0.00255824)
(0.00194618 0.000261544 -1.78396e-20 0.00191691 -1.59927e-19 0.00190833)
(0.002113 0.000277939 8.98063e-20 0.00191806 2.21784e-21 0.00199779)
(0.00295669 0.000385134 -7.69323e-20 0.00246958 -2.21238e-20 0.00271056)
(0.00451262 0.000623613 7.74698e-20 0.00351969 1.8676e-19 0.00402585)
(0.00693269 0.00109457 1.82189e-19 0.00509465 -8.52935e-20 0.00603252)
(0.0105083 0.00197074 -2.02447e-19 0.0073261 -5.8373e-20 0.00895253)
(0.0156679 0.00349402 1.34789e-20 0.0104636 9.62454e-20 0.0131307)
(0.0229228 0.00591564 8.38044e-19 0.0148918 1.78325e-19 0.0190074)
(0.0330094 0.00952703 8.3133e-19 0.0212992 -1.75489e-19 0.0273046)
(0.0472478 0.0147487 3.85332e-19 0.0308119 6.00963e-19 0.0392361)
(0.0681428 0.0224678 2.84183e-19 0.045432 6.03747e-19 0.0570725)
(0.100374 0.034427 3.04284e-19 0.0687499 -1.7188e-19 0.084953)
(0.152247 0.0539111 5.79696e-19 0.107386 2.53709e-20 0.130391)
(0.240212 0.0874637 -8.77821e-19 0.174605 -5.32438e-18 0.208283)
(0.393815 0.147305 -3.10482e-18 0.295507 -1.02326e-19 0.346118)
(0.682674 0.262444 2.95393e-18 0.530249 5.21529e-18 0.609115)
(1.22803 0.486356 2.13509e-18 0.992519 -5.64626e-19 1.11572)
(2.3954 0.977842 7.45898e-17 2.02168 -1.51419e-17 2.22029)
(4.80226 2.01575 -1.11776e-18 4.23054 -1.16241e-17 4.54094)
(10.5224 4.53003 1.98259e-19 9.66434 7.30721e-18 10.1511)
(21.2608 9.36578 2.27524e-18 20.3385 -6.99002e-20 20.92)
(29.5415 13.289 3.28617e-19 29.4211 4.45033e-21 29.6375)
(32.6359 14.9571 3.64826e-16 33.7948 5.11231e-18 33.3628)
(33.0553 15.3961 -4.18827e-18 35.5084 -2.16462e-19 34.4052)
(32.6433 15.416 -2.643e-17 36.2818 3.59886e-17 34.5636)
(31.9206 15.2539 -2.2427e-15 36.6189 -1.86636e-16 34.3534)
(30.9798 14.9539 -4.02449e-15 36.5984 -2.59413e-16 33.8594)
(29.8477 14.5317 3.58564e-15 36.2435 3.91321e-16 33.1061)
(28.5611 14.0088 -2.69069e-17 35.6001 1.37211e-16 32.1335)
(26.9081 13.2857 1.38449e-18 34.4254 -5.2764e-16 30.7149)
(25.1155 12.4685 -1.93975e-16 32.9233 2.83031e-16 29.0644)
(20.1412 10.0646 -3.51002e-15 27.4136 1.2575e-16 23.7873)
(0.00226722 -0.000155268 -1.39713e-21 0.00189657 -4.27631e-21 0.00205186)
(0.0022242 -0.000181989 2.50845e-21 0.00191898 5.67832e-21 0.00203811)
(0.00215876 -0.000204468 -1.11112e-22 0.00194134 1.58065e-23 0.0020105)
(0.00205943 -0.000211731 5.10428e-21 0.00192663 7.58297e-22 0.00194826)
(0.00192983 -0.000206763 3.44322e-21 0.00187674 2.99388e-20 0.00185492)
(0.00178991 -0.000193315 2.25518e-20 0.00180989 3.94341e-20 0.00174797)
(0.00164023 -0.000173019 -1.11888e-20 0.00171476 1.8017e-21 0.00162247)
(0.00148402 -0.000149086 -9.35379e-21 0.00159455 -2.45566e-21 0.0014824)
(0.00133659 -0.000125538 -5.24525e-20 0.00146806 -5.79442e-20 0.00134404)
(0.00119897 -0.000104533 -1.75631e-20 0.00133687 -5.78523e-21 0.00120853)
(0.00107272 -8.69475e-05 -1.52986e-19 0.00120616 -1.49439e-19 0.00107997)
(0.000987128 -7.80406e-05 -1.90483e-21 0.00111446 2.61316e-20 0.000989213)
(0.000976439 -8.37588e-05 -9.65674e-20 0.00110666 2.85168e-21 0.000969397)
(0.00107622 -0.000114109 9.00435e-20 0.00122349 5.35153e-20 0.00104899)
(0.00141331 -0.00021438 -3.28363e-19 0.00159355 -9.57495e-20 0.00132344)
(0.00229741 -0.000518592 1.51806e-18 0.00245114 3.67954e-19 0.00199549)
(0.00462697 -0.00138507 -2.99352e-18 0.00434573 -2.60191e-18 0.00368506)
(0.0101395 -0.00334749 -5.41544e-18 0.00824956 -2.19462e-18 0.00777625)
(0.025037 -0.00842481 -1.15709e-17 0.0184852 4.88048e-18 0.0193331)
(0.061557 -0.0208267 2.30522e-18 0.0434485 -2.02001e-20 0.0486899)
(0.18095 -0.0622284 2.17448e-17 0.126637 3.2095e-17 0.147217)
(0.492414 -0.174259 -4.15428e-17 0.350793 -1.26571e-16 0.412312)
(1.4825 -0.546362 -2.22989e-18 1.09917 2.28001e-16 1.27915)
(4.62587 -1.7848 5.22329e-18 3.61887 -8.748e-17 4.11832)
(8.80465 -3.5444 -0 7.28372 -0 8.07992)
(12.9112 -5.39255 -2.56122e-17 11.2774 6.08176e-16 12.1759)
(16.5581 -7.15011 -6.82064e-17 15.2788 4.69213e-17 16.0262)
(18.8737 -8.39702 -1.10735e-16 18.3898 -4.76196e-16 18.7449)
(18.9118 -8.63898 -9.74329e-16 19.438 -2.62986e-15 19.2738)
(16.9141 -7.89976 3.87888e-16 18.2885 -8.30011e-15 17.663)
(14.0852 -6.69368 -1.09045e-16 15.9405 5.64128e-15 15.0254)
(11.382 -5.47933 -3.38892e-16 13.3976 7.39383e-15 12.3625)
(9.25776 -4.49918 -2.19875e-15 11.257 4.27201e-15 10.2126)
(7.67279 -3.75415 6.48241e-15 9.56454 1.54378e-14 8.5742)
(6.48114 -3.18692 -4.13579e-16 8.23318 -2.76651e-15 7.32114)
(5.56506 -2.74388 6.23915e-15 7.14902 -3.67533e-15 6.32631)
(4.91804 -2.4326 -2.2406e-16 6.39345 4.92706e-17 5.63569)
(4.36119 -2.13731 3.17507e-15 5.51746 7.06402e-16 4.88638)
(4.49784 -2.25541 5.72225e-15 5.98369 6.56087e-15 5.3742)
(0.00227306 -0.000117587 1.62858e-21 0.00185014 5.33148e-21 0.00203592)
(0.00226174 -7.76584e-05 -1.06094e-21 0.00180481 -2.26529e-20 0.00200893)
(0.00221017 -2.67401e-05 -1.43991e-20 0.00173925 -4.80196e-20 0.00195527)
(0.00211629 3.07748e-05 2.68768e-21 0.00166086 6.90719e-20 0.0018744)
(0.00197239 8.4877e-05 3.23379e-20 0.0015697 -3.04727e-20 0.00176339)
(0.00177368 0.000127791 -9.31279e-21 0.00146049 -5.07144e-20 0.00161507)
(0.00153877 0.000150822 5.11787e-20 0.00133594 -1.10737e-19 0.00143925)
(0.00131424 0.000152953 -8.77269e-20 0.00121224 -1.19025e-20 0.00126835)
(0.00111359 0.000139699 -4.78994e-20 0.00109255 1.08905e-19 0.00110896)
(0.000921992 0.000116367 -1.43754e-20 0.000968452 -5.50407e-21 0.000948661)
(0.000751547 8.77136e-05 -2.32294e-20 0.000839709 -5.31589e-20 0.000794866)
(0.00061501 6.18863e-05 4.70106e-21 0.000717216 -2.75585e-20 0.000661744)
(0.0005068 4.21522e-05 1.83364e-20 0.000605982 4.70843e-20 0.000549885)
(0.000419004 2.82162e-05 -1.54894e-20 0.000507067 -1.05484e-20 0.000455579)
(0.000346723 1.8887e-05 -8.61265e-21 0.000420708 -3.08476e-20 0.000376061)
(0.000286789 1.284e-05 -2.89225e-20 0.000346646 -8.83638e-21 0.000309383)
(0.000236372 8.97599e-06 -4.74233e-21 0.000283092 -6.25636e-23 0.000253113)
(0.000193791 6.45638e-06 -2.73287e-22 0.000228976 -2.46037e-21 0.000205742)
(0.000156382 4.61628e-06 -2.29826e-21 0.000181429 1.656e-21 0.000164441)
(0.000121922 3.10714e-06 3.0702e-21 0.000138143 -1.04884e-21 0.000126849)
(8.72582e-05 1.73896e-06 -1.15967e-20 9.58642e-05 8.58476e-21 8.97089e-05)
(5.24486e-05 6.64513e-07 -1.0277e-21 5.55802e-05 2.13007e-22 5.32731e-05)
(1.84794e-05 8.34783e-08 -5.03934e-24 1.88608e-05 -1.28521e-22 1.85693e-05)
(3.03475e-06 2.2741e-09 1.66387e-23 3.04464e-06 9.24719e-25 3.03669e-06)
(7.69442e-06 1.59135e-08 -9.07481e-23 7.7537e-06 7.76243e-24 7.70319e-06)
(0.000850737 0.000192751 -8.68282e-19 0.00142859 1.91048e-19 0.000910358)
(0.00451521 0.00133113 -8.03385e-20 0.00781725 -1.21668e-19 0.00473823)
(0.0372206 0.0119584 -6.56725e-21 0.0620703 -3.43605e-19 0.0383052)
(0.128051 0.0458812 -4.97424e-20 0.204166 -6.75914e-22 0.130544)
(0.256195 0.102653 2.70841e-18 0.386078 2.24267e-18 0.261084)
(0.39092 0.170602 1.83894e-19 0.554139 -9.91425e-19 0.401564)
(0.512464 0.235158 4.69718e-18 0.689628 -1.74827e-17 0.533182)
(0.614333 0.289291 2.4551e-15 0.799327 1.7652e-16 0.648338)
(0.701202 0.334844 2.30218e-15 0.897884 1.24641e-16 0.750423)
(0.778731 0.375279 -2.13802e-15 0.994957 -2.52319e-16 0.844896)
(0.856837 0.415465 2.07365e-15 1.09884 2.72093e-16 0.94011)
(0.934257 0.456086 -3.6768e-15 1.21456 -5.42747e-16 1.04023)
(1.13389 0.552212 -3.4225e-15 1.45532 -7.47094e-16 1.25434)
(1.57413 0.775635 -3.41843e-15 1.97916 -1.03583e-16 1.79194)
(0.00151794 -0.000120526 -6.04054e-22 0.00125069 -2.17743e-21 0.00139957)
(0.00147812 -0.00014368 -1.29861e-20 0.00126644 -3.0627e-20 0.00139074)
(0.00140952 -0.000159887 9.56735e-21 0.00127084 2.28751e-20 0.00136171)
(0.00132 -0.000165142 1.32226e-20 0.00126232 2.5036e-20 0.00131723)
(0.00122901 -0.00016036 2.39582e-20 0.00125156 3.46069e-20 0.00126992)
(0.0011353 -0.000144957 -7.36892e-20 0.00123368 -1.28985e-19 0.0012177)
(0.00104709 -0.000120406 5.17529e-20 0.00120886 1.03889e-19 0.00116516)
(0.000973231 -9.03613e-05 6.91209e-20 0.00118127 6.16744e-20 0.00111771)
(0.000915238 -5.71681e-05 -3.97477e-21 0.00115199 8.37081e-21 0.00107694)
(0.000875523 -2.41266e-05 4.22197e-20 0.00112376 7.52747e-20 0.00104557)
(0.000850877 6.59941e-06 -9.18707e-20 0.00109599 -4.34476e-21 0.00102116)
(0.000842181 3.35519e-05 1.25576e-19 0.00107472 1.39347e-19 0.00100704)
(0.00084696 5.60805e-05 5.94711e-20 0.00106228 2.44206e-20 0.00100281)
(0.000864317 7.5366e-05 3.01122e-20 0.00106226 -2.87605e-20 0.0010105)
(0.0008788 8.93836e-05 8.63899e-20 0.00105681 8.53616e-20 0.00101221)
(0.000863043 9.29445e-05 -2.03662e-19 0.00101278 -2.07709e-19 0.000975993)
(0.000754048 7.39225e-05 3.77881e-20 0.000854001 5.52628e-20 0.00082929)
(0.000725426 7.14055e-05 2.97024e-19 0.000809361 8.71362e-20 0.000787725)
(8.83617e-05 1.04778e-06 1.32669e-21 8.94676e-05 9.7696e-22 8.91599e-05)
(0.00344085 0.00149155 -6.09703e-19 0.0049091 -4.23859e-20 0.00445603)
(2.70188e-08 1.28079e-13 6.69219e-29 2.70189e-08 -1.47699e-28 2.70189e-08)
(0.000862474 0.000216081 3.01241e-20 0.00106705 2.59735e-19 0.000986151)
(2.08259e-05 6.91572e-07 1.305e-20 2.20936e-05 -2.6827e-21 2.13963e-05)
(0.0125544 -0.00489471 -5.92686e-18 0.0101801 -2.47295e-18 0.0109856)
(0.135414 -0.0541799 2.41596e-19 0.112744 6.11377e-19 0.121323)
(0.46875 -0.193967 -5.74156e-17 0.40834 1.64125e-17 0.432278)
(1.16045 -0.495379 2.02194e-17 1.05916 8.35602e-18 1.10069)
(2.54542 -1.115 -2.5599e-17 2.42486 -2.11968e-18 2.47429)
(4.92421 -2.20439 -6.36433e-16 4.88049 6.5019e-16 4.89213)
(7.97022 -3.6387 -1.08534e-15 8.21405 3.3553e-17 8.08733)
(10.5818 -4.92137 3.90737e-15 11.3527 -1.15102e-15 10.9751)
(11.6886 -5.52919 3.18643e-15 13.0595 1.73795e-15 12.3957)
(11.194 -5.37043 -1.54801e-16 12.9908 4.30211e-15 12.116)
(9.87941 -4.78923 6.63868e-15 11.8383 -5.04578e-15 10.8715)
(8.45892 -4.12975 5.16088e-15 10.3881 -2.92534e-15 9.4257)
(7.19486 -3.52491 -9.58117e-15 8.95564 -3.55182e-15 8.07077)
(6.21677 -3.05442 -2.70207e-17 7.81373 -1.68962e-15 7.01663)
(5.27634 -2.55718 6.26897e-15 6.35592 -1.58523e-15 5.79199)
(5.68164 -2.81523 -1.31004e-14 7.35205 4.22439e-15 6.54385)
(0.0015523 -9.11275e-05 -2.8392e-21 0.00123887 -6.86541e-21 0.00140949)
(0.00156578 -5.92932e-05 -2.35655e-21 0.00122378 -2.58823e-21 0.00140594)
(0.00157121 -2.0449e-05 2.12294e-20 0.00121265 3.71883e-20 0.00140051)
(0.00154398 2.0792e-05 -1.27859e-20 0.00119233 -6.24393e-22 0.00137358)
(0.00148469 6.12756e-05 3.04412e-21 0.00116505 1.59682e-20 0.001328)
(0.00138239 9.45423e-05 -4.96841e-21 0.00112078 5.04015e-20 0.00125272)
(0.00124292 0.000115292 -1.14592e-20 0.00105717 4.76811e-20 0.00114987)
(0.00108714 0.000121553 1.33453e-19 0.000979631 9.63586e-20 0.00103381)
(0.000943601 0.00011757 1.99123e-20 0.000906421 -2.61754e-20 0.000925845)
(0.000803186 0.000104297 7.13513e-20 0.000824344 9.32474e-21 0.000814368)
(0.00066421 8.44655e-05 -5.56104e-20 0.000723634 -3.73553e-20 0.000694682)
(0.000538922 6.38537e-05 -4.02006e-20 0.000616468 6.17101e-20 0.000579131)
(0.000432673 4.57841e-05 4.33757e-20 0.000514484 -2.19574e-20 0.000475915)
(0.000344921 3.11735e-05 3.57271e-20 0.00042279 -1.30413e-22 0.000387176)
(0.000274842 2.01062e-05 -2.57925e-20 0.000344705 2.48862e-20 0.000313928)
(0.000219763 1.20396e-05 -1.86484e-20 0.000280135 4.50154e-20 0.000254811)
(0.00017778 6.39494e-06 4.52964e-20 0.000228891 -2.77695e-20 0.00020872)
(0.000146524 2.47489e-06 4.22683e-20 0.000189442 -7.71882e-21 0.00017376)
(0.000124183 -2.97472e-07 1.66314e-20 0.000160387 -1.47405e-21 0.000148302)
(0.000108461 -2.41204e-06 -5.64601e-21 0.000139173 2.08974e-20 0.000130029)
(9.79686e-05 -4.16321e-06 7.99015e-20 0.000124213 9.88546e-21 0.000117443)
(9.16499e-05 -5.84813e-06 3.20444e-21 0.000113949 -1.48624e-20 0.000109339)
(8.90444e-05 -7.6746e-06 -2.59732e-22 0.000107321 -9.70253e-22 0.000105008)
(8.91669e-05 -9.4459e-06 -1.81538e-21 0.000101838 -1.06148e-20 0.000102928)
(9.23335e-05 -1.05775e-05 -1.51749e-21 9.77637e-05 7.98015e-21 0.000103487)
(9.52247e-05 -1.00464e-05 1.2923e-19 9.32974e-05 -6.6374e-21 0.000103174)
(0.000104339 -9.47672e-06 3.49234e-22 9.58569e-05 -1.0116e-23 0.00011009)
(6.26093e-05 -2.75321e-06 -4.71159e-21 5.80067e-05 2.64496e-22 6.39437e-05)
(0.000473689 -6.54865e-05 -1.02407e-21 0.000295314 -1.57805e-22 0.000501538)
(0.00325791 -0.000272171 -2.52079e-18 0.00168497 -9.40748e-20 0.00340654)
(0.00933241 0.000423632 1.75985e-17 0.00467812 7.80483e-19 0.00965143)
(0.0187784 0.00468054 -2.38008e-19 0.0112611 -1.32598e-20 0.0193654)
(0.0385925 0.0154311 -2.73015e-16 0.0316693 -1.27969e-17 0.0399445)
(0.0759617 0.0342664 -3.14609e-19 0.0747431 9.41735e-18 0.0792375)
(0.130156 0.0608287 -1.19898e-18 0.139675 8.21035e-18 0.137224)
(0.196679 0.092944 3.54086e-17 0.218856 -1.03149e-16 0.208505)
(0.267561 0.12757 -1.72844e-16 0.305667 7.11118e-16 0.286674)
(0.333452 0.154058 2.18601e-15 0.353563 8.14276e-16 0.342258)
(0.548194 0.261132 4.48525e-15 0.615111 1.75783e-15 0.593622)
(0.00128863 -9.77163e-05 -2.52598e-21 0.00106042 -4.72176e-21 0.00116918)
(0.00127325 -0.000115795 -5.50408e-21 0.00108101 -8.81906e-21 0.00117124)
(0.00124336 -0.000131419 1.05165e-20 0.00110019 1.60021e-20 0.00116424)
(0.00120682 -0.00014156 1.48078e-20 0.00111825 1.43991e-20 0.00115352)
(0.00115902 -0.000144758 1.67355e-21 0.00112701 -7.27011e-22 0.0011323)
(0.00110147 -0.000141128 -5.6819e-21 0.00112607 1.39683e-20 0.00110107)
(0.00103944 -0.000131407 1.07896e-19 0.0011149 1.08108e-19 0.00106245)
(0.000972853 -0.00011672 -1.01068e-19 0.00108976 -1.34211e-19 0.00101456)
(0.000904868 -9.88157e-05 2.82751e-20 0.00105282 7.30981e-21 0.000959919)
(0.000836989 -7.97162e-05 1.3362e-19 0.00100436 9.89859e-20 0.000899772)
(0.000769999 -6.08853e-05 1.05106e-19 0.00094618 1.06751e-19 0.00083531)
(0.000703954 -4.35112e-05 1.1401e-19 0.000879806 3.27585e-20 0.00076755)
(0.000638549 -2.83861e-05 -1.27136e-19 0.000806747 -9.64072e-20 0.000697259)
(0.000573945 -1.58315e-05 -7.97231e-20 0.000729292 -7.99797e-20 0.000625801)
(0.000510009 -5.80771e-06 8.77758e-21 0.000648944 -2.68113e-20 0.000553728)
(0.000443328 2.90017e-06 -1.95042e-19 0.000562868 1.37304e-20 0.000478581)
(0.000377802 1.02198e-05 -5.28175e-20 0.000474989 -6.69361e-20 0.000404448)
(0.000324812 1.61642e-05 -2.9061e-19 0.000400898 -2.26012e-19 0.000344239)
(0.000252835 1.57033e-05 2.14082e-20 0.000295623 -2.88095e-20 0.000263453)
(0.000161189 7.74954e-06 3.56891e-21 0.000174684 -8.1409e-21 0.000164765)
(1.96669e-05 1.09348e-07 -3.95249e-22 1.98013e-05 -4.6925e-24 1.97087e-05)
(9.50974e-05 2.26456e-06 1.02017e-21 9.72433e-05 2.25629e-22 9.58736e-05)
(7.62718e-06 1.30043e-08 -2.47165e-23 7.63655e-06 -5.03187e-24 7.63081e-06)
(0.00261208 0.00107883 -6.46277e-19 0.00313225 6.9386e-19 0.00280345)
(0.0139437 0.00648405 1.07824e-18 0.0154231 7.30673e-20 0.0142701)
(0.000223961 1.70928e-05 1.3861e-20 0.000223388 7.39335e-21 0.000222496)
(0.00286825 0.00114758 -1.24534e-19 0.00248717 5.14802e-20 0.0025836)
(0.00492718 0.00143022 6.37058e-19 0.002998 4.04321e-20 0.00370624)
(0.0325948 -0.011656 4.0732e-17 0.0236154 2.48132e-18 0.027255)
(0.256099 -0.110275 -1.00597e-17 0.237146 1.22987e-16 0.244735)
(1.06555 -0.479664 -5.33591e-16 1.06854 -5.26559e-16 1.06376)
(2.81981 -1.30121 1.99125e-15 2.97653 -1.86767e-15 2.89412)
(5.1615 -2.4271 2.17914e-15 5.69029 -2.12491e-16 5.4246)
(7.01007 -3.34706 -3.84943e-16 8.03605 -7.24545e-15 7.5282)
(7.71166 -3.72482 -5.82591e-15 9.13779 -1.76437e-15 8.43367)
(7.51113 -3.6521 7.00037e-16 9.09525 3.66551e-15 8.30698)
(7.00733 -3.42192 -9.96846e-15 8.60598 1.47871e-15 7.81367)
(6.26024 -3.02039 -6.98969e-15 7.41899 8.73339e-16 6.82409)
(6.54471 -3.21331 8.11185e-15 8.14644 -4.94805e-15 7.38808)
(0.00128965 -7.51239e-05 -1.36646e-21 0.00103306 -1.40262e-21 0.00115776)
(0.00127914 -5.1234e-05 4.87602e-21 0.00100514 2.23245e-20 0.00113902)
(0.00125252 -2.16873e-05 1.44771e-20 0.000970859 3.21576e-20 0.00111016)
(0.00121297 9.51322e-06 1.56022e-20 0.000937825 -7.62148e-21 0.00107465)
(0.0011559 3.99719e-05 -3.0999e-20 0.000903992 -2.66252e-20 0.00103001)
(0.00107637 6.60759e-05 -3.41786e-21 0.00086515 -3.8088e-20 0.000970919)
(0.000980912 8.44557e-05 -4.75669e-20 0.000822675 -4.88497e-20 0.000901647)
(0.000879079 9.33574e-05 -7.51318e-20 0.000777405 -2.77356e-21 0.000828258)
(0.000775264 9.35099e-05 -2.16132e-20 0.000727889 -1.19314e-20 0.000752033)
(0.000668513 8.57877e-05 2.33797e-20 0.000668426 -1.63683e-20 0.000669119)
(0.000565433 7.27425e-05 2.31489e-20 0.000599892 5.31134e-20 0.000583226)
(0.000474503 5.812e-05 4.3551e-20 0.000530053 -1.68929e-20 0.00050257)
(0.000398387 4.44029e-05 -3.7202e-20 0.000464259 -4.26779e-20 0.000431181)
(0.000335865 3.26838e-05 -7.03035e-21 0.00040456 1.58656e-20 0.000369578)
(0.000285211 2.33569e-05 3.38752e-20 0.000352009 -7.38296e-21 0.000317466)
(0.000244179 1.62594e-05 7.43406e-20 0.00030654 -5.30333e-21 0.000273759)
(0.000211314 1.10738e-05 -4.6632e-20 0.000268264 -1.33614e-20 0.000237776)
(0.000185066 7.35016e-06 -1.41595e-20 0.000236576 -2.06639e-20 0.000208467)
(0.000164288 4.64624e-06 -6.60327e-21 0.000210857 3.65995e-21 0.000184941)
(0.000147527 2.56472e-06 6.89341e-20 0.000189742 -2.72412e-20 0.000165814)
(0.000134024 8.49136e-07 1.24441e-20 0.000172463 -1.823e-20 0.000150275)
(0.000122794 -7.18506e-07 -6.70283e-20 0.000157828 1.96795e-20 0.000137235)
(0.000112889 -2.26712e-06 -2.80347e-21 0.000144554 9.89632e-21 0.000125549)
(0.000102628 -3.7049e-06 -1.07775e-21 0.000130414 -6.61354e-21 0.000113286)
(9.22003e-05 -4.60625e-06 1.00441e-21 0.000115833 -8.2264e-23 0.000100627)
(8.36263e-05 -4.8895e-06 -5.1247e-20 0.000103762 -1.05328e-20 8.9962e-05)
(7.72193e-05 -4.83544e-06 -9.06178e-22 9.46566e-05 1.61151e-22 8.18226e-05)
(7.26521e-05 -4.67169e-06 1.10604e-20 8.8153e-05 2.94127e-22 7.58942e-05)
(6.69058e-05 -4.28811e-06 -3.91699e-22 8.02418e-05 -9.40507e-24 6.89642e-05)
(5.91084e-05 -3.80472e-06 2.52777e-22 7.01402e-05 3.60261e-22 6.02382e-05)
(4.49341e-05 -2.8078e-06 -2.78781e-20 5.22378e-05 -1.0051e-21 4.53097e-05)
(2.8675e-05 -1.69278e-06 -6.43304e-22 3.24463e-05 -3.99717e-23 2.86176e-05)
(0.000200264 -5.49711e-05 3.65368e-21 0.000303518 -6.72637e-20 0.000184253)
(0.000395541 -4.56873e-05 1.70598e-17 0.000505576 1.53734e-18 0.000287309)
(0.00167453 0.000600782 1.09905e-18 0.001301 1.22899e-19 0.00133721)
(0.00859031 0.00334198 -1.88068e-16 0.00675681 -3.56077e-17 0.00776366)
(0.026848 0.0112047 1.25008e-15 0.0232203 1.8353e-16 0.0257537)
(0.0705896 0.0278787 4.81105e-17 0.0566698 -1.76424e-16 0.0643655)
(0.229793 0.104431 2.73018e-16 0.23066 -1.51775e-15 0.237394)
(0.000964251 -7.4408e-05 -3.03444e-21 0.000794211 -4.51092e-21 0.000880947)
(0.000948101 -8.7877e-05 -5.53845e-21 0.000806744 -7.48153e-21 0.000879905)
(0.000922386 -9.91162e-05 1.88302e-20 0.00081856 2.41261e-20 0.000873225)
(0.000888747 -0.00010593 -8.03328e-20 0.00082724 -1.09909e-19 0.000861503)
(0.000847416 -0.000107512 1.99379e-20 0.000830202 3.12835e-20 0.000843107)
(0.000799227 -0.000103642 4.34876e-20 0.000826594 4.52128e-20 0.000817939)
(0.000747565 -9.45918e-05 -3.71152e-20 0.000815579 -6.08479e-20 0.000787591)
(0.00069438 -8.11897e-05 -2.50246e-20 0.000796282 4.32719e-21 0.000752407)
(0.000641691 -6.4565e-05 -1.49557e-19 0.000769075 -1.41467e-19 0.000713514)
(0.000592426 -4.63096e-05 -2.09333e-20 0.000735773 -5.65227e-20 0.000673431)
(0.00054786 -2.77214e-05 4.1152e-21 0.000697829 -1.32782e-20 0.00063338)
(0.000509194 -9.99792e-06 -7.50397e-20 0.000657326 -9.53227e-20 0.000594999)
(0.000477419 5.89744e-06 3.60066e-20 0.000616811 4.31953e-20 0.000560005)
(0.000452723 1.93939e-05 -1.47937e-19 0.000578345 -7.69017e-20 0.000529404)
(0.000434978 3.04325e-05 3.23101e-20 0.000543553 1.79973e-20 0.000503958)
(0.000422199 3.85959e-05 1.41571e-19 0.000512526 1.18448e-19 0.00048231)
(0.000408336 4.36342e-05 -1.94657e-19 0.000480631 -5.53657e-20 0.000458838)
(0.000388801 4.56763e-05 -3.57246e-20 0.000443315 1.60585e-19 0.000429218)
(0.000369423 4.68266e-05 -1.2396e-20 0.000408787 -2.10151e-20 0.000401047)
(0.000330439 4.20287e-05 -1.40341e-19 0.000353904 -2.27259e-20 0.000351588)
(0.00026308 2.92367e-05 1.075e-19 0.000273123 6.59542e-20 0.000273587)
(0.000131564 7.55003e-06 9.01275e-22 0.000133168 -1.3022e-21 0.000133442)
(1.60425e-05 1.03793e-07 2.65033e-22 1.60558e-05 7.38508e-23 1.60595e-05)
(3.26767e-06 3.79322e-09 6.25039e-24 3.26773e-06 2.08524e-24 3.26797e-06)
(0 0 -0 0 -0 0)
(1.12774e-05 3.99955e-08 6.17724e-25 1.1268e-05 -2.23767e-24 1.12741e-05)
(0.000621533 0.00010486 1.66048e-20 0.000590086 -4.59518e-21 0.00060796)
(0.00387335 0.00154908 -1.15513e-19 0.00335659 -1.74522e-19 0.00363016)
(0.0195043 0.0079657 -8.52401e-18 0.0165144 -4.2425e-19 0.0180288)
(0.0102553 0.00408662 4.77985e-19 0.00840305 2.72019e-20 0.00931645)
(0.0227347 0.0085878 -2.63327e-18 0.0173285 1.01122e-18 0.0199627)
(0.0459497 0.0119915 -2.23337e-16 0.0250245 -1.5815e-16 0.0351449)
(0.241894 -0.0987424 -8.17542e-17 0.205298 -2.52922e-16 0.222349)
(1.27633 -0.585322 -5.45822e-15 1.32985 5.37753e-16 1.30009)
(3.15781 -1.49191 7.65185e-16 3.52465 2.51215e-15 3.3385)
(5.00892 -2.4012 -8.6291e-19 5.81195 1.3294e-19 5.40937)
(6.1303 -2.96548 -3.40559e-16 7.29919 4.54659e-15 6.72069)
(6.43498 -3.08696 1.42318e-16 7.49722 1.90413e-16 6.95015)
(6.9735 -3.40304 -1.32601e-14 8.48334 2.74779e-15 7.78466)
(0.000973536 -5.80121e-05 5.35414e-21 0.000780317 3.43906e-21 0.000878724)
(0.00097531 -4.04318e-05 -1.50764e-20 0.000766652 -2.43049e-20 0.00087199)
(0.000967337 -1.88495e-05 -8.3305e-21 0.000749964 1.41411e-20 0.000859572)
(0.000946681 4.45398e-06 4.02294e-20 0.000731343 2.95574e-20 0.000839481)
(0.00091159 2.77153e-05 -1.50188e-20 0.000710726 -7.74476e-20 0.000811486)
(0.000858237 4.83568e-05 -2.68686e-20 0.000685234 1.82147e-20 0.000771741)
(0.000792061 6.39209e-05 6.77991e-20 0.00065693 5.27813e-20 0.00072431)
(0.000720166 7.29093e-05 -2.25349e-20 0.000627162 -6.15999e-20 0.000673596)
(0.00064481 7.53683e-05 -5.42739e-20 0.000594103 -2.45389e-20 0.000619559)
(0.000566121 7.16249e-05 -4.03777e-20 0.000553852 1.5777e-20 0.00056018)
(0.000489259 6.33279e-05 4.46252e-20 0.000507054 1.69994e-21 0.000498329)
(0.000418577 5.28453e-05 -2.55187e-20 0.000456727 -2.6081e-20 0.000437811)
(0.000355918 4.20748e-05 -3.26576e-20 0.000405714 2.60663e-20 0.000381004)
(0.000301301 3.21464e-05 3.16218e-20 0.000355968 1.36082e-20 0.0003289)
(0.000254435 2.3674e-05 -4.63583e-20 0.000309186 7.73237e-21 0.000282193)
(0.000214698 1.68127e-05 -1.24484e-20 0.000266582 -3.42231e-20 0.000241183)
(0.000181488 1.14809e-05 1.38283e-20 0.000228975 1.77038e-20 0.00020595)
(0.00015414 7.42545e-06 -5.06679e-20 0.000196725 2.37349e-21 0.000176332)
(0.000131999 4.34969e-06 2.01268e-20 0.00016981 -3.60352e-22 0.000151972)
(0.000114189 1.95077e-06 -7.67114e-20 0.000147611 5.24057e-21 0.000132125)
(0.000100009 -7.19267e-09 -1.0574e-20 0.000129491 2.88362e-21 0.000116103)
(8.86561e-05 -1.71616e-06 6.15e-20 0.000114502 5.69087e-21 0.000103042)
(7.93399e-05 -3.2858e-06 5.89604e-20 0.000101575 -1.34968e-20 9.20063e-05)
(7.07595e-05 -4.65696e-06 -4.91541e-20 8.89178e-05 3.64337e-21 8.15025e-05)
(6.22265e-05 -5.53006e-06 -6.86068e-22 7.58587e-05 4.09977e-22 7.08399e-05)
(5.44195e-05 -5.80717e-06 -4.70964e-20 6.3736e-05 1.43719e-20 6.09831e-05)
(4.83891e-05 -5.7188e-06 -9.30168e-22 5.38811e-05 1.0078e-23 5.32175e-05)
(4.45522e-05 -5.39364e-06 -7.51065e-24 4.66676e-05 -3.93062e-22 4.79298e-05)
(4.35162e-05 -5.06166e-06 -5.48779e-23 4.27137e-05 1.10896e-23 4.57512e-05)
(4.12475e-05 -4.09786e-06 1.61613e-20 3.83497e-05 1.32988e-22 4.23657e-05)
(5.1703e-05 -5.49222e-06 7.68316e-23 4.50059e-05 -1.6906e-22 5.23024e-05)
(1.19165e-05 -3.211e-07 2.42735e-24 1.14017e-05 -7.25207e-26 1.18985e-05)
(8.48094e-05 -1.23656e-05 -4.40136e-19 6.20448e-05 -3.29744e-20 8.20212e-05)
(0.000439222 -0.000103799 -3.84648e-18 0.000233639 -3.28545e-19 0.00039682)
(0.00111141 -0.000257533 9.40657e-20 0.000562296 9.45965e-21 0.000951625)
(0.00229291 -0.00046015 -4.25488e-17 0.00107042 -6.71135e-19 0.00181877)
(0.0008868 -9.17584e-05 1.97658e-18 0.000353705 -1.47344e-17 0.00065137)
(0.00285305 0.000198733 1.36925e-18 0.00112029 2.70327e-19 0.00195629)
(0.0489134 0.0196711 -5.07429e-16 0.0398815 7.05195e-17 0.0464536)
(0.000790951 -6.10485e-05 5.9727e-21 0.000651772 7.00682e-21 0.000720729)
(0.000783314 -7.1929e-05 -4.50747e-21 0.00066552 -5.07062e-21 0.000723844)
(0.000768901 -8.14914e-05 1.89724e-23 0.000679576 -3.74689e-22 0.000723325)
(0.00075019 -8.8107e-05 -2.57426e-21 0.000693227 2.41348e-21 0.000720632)
(0.000726024 -9.09818e-05 5.75939e-20 0.000703365 6.08168e-20 0.000713403)
(0.000696916 -8.9977e-05 -3.64385e-20 0.000709774 -4.68197e-20 0.000701652)
(0.000664895 -8.51252e-05 -2.75398e-21 0.000711278 1.20702e-20 0.000686028)
(0.000630465 -7.68368e-05 1.24542e-19 0.000706229 1.19922e-19 0.00066585)
(0.000594689 -6.58181e-05 -2.94037e-20 0.000694425 2.12665e-21 0.000641492)
(0.000558813 -5.31308e-05 -1.41005e-19 0.000675843 -9.42891e-20 0.000613672)
(0.000523209 -3.97214e-05 4.37652e-20 0.000650626 3.66996e-20 0.00058259)
(0.000488405 -2.64968e-05 -1.16554e-19 0.00061968 -3.68776e-20 0.000548975)
(0.000454773 -1.42758e-05 -4.28175e-20 0.000584175 -1.5978e-20 0.000513639)
(0.000422366 -3.55491e-06 -7.32586e-20 0.0005453 4.10326e-20 0.00047719)
(0.000391189 5.37021e-06 6.36224e-21 0.000504287 3.52776e-21 0.000440302)
(0.000359921 1.22842e-05 5.33526e-20 0.000460659 1.19813e-20 0.000402131)
(0.000326213 1.76128e-05 7.36204e-20 0.000412303 1.08554e-19 0.000360948)
(0.000291855 2.133e-05 2.75073e-19 0.000362118 7.60674e-20 0.000319034)
(0.000260099 2.37172e-05 -1.09842e-19 0.000314869 -5.2729e-21 0.000280279)
(0.000232492 2.49708e-05 1.01074e-19 0.000272965 4.45569e-20 0.000246538)
(0.000214103 2.64006e-05 1.57103e-20 0.000242852 -4.58335e-20 0.000223273)
(0.0001866 2.33352e-05 -1.46096e-20 0.000201656 2.65844e-20 0.000190662)
(0.000156947 1.7587e-05 -6.54348e-20 0.000161144 -3.74103e-20 0.000157293)
(4.2142e-05 1.28113e-06 1.6401e-22 4.19691e-05 -1.94034e-22 4.19822e-05)
(7.30195e-06 3.70347e-08 9.22775e-24 7.28538e-06 -1.9077e-24 7.2924e-06)
(3.34271e-06 7.55631e-09 1.03525e-23 3.33768e-06 -3.21523e-24 3.33997e-06)
(6.88335e-07 3.16552e-10 -1.50643e-25 6.88095e-07 -5.38349e-26 6.88206e-07)
(0 0 -0 0 -0 0)
(0 0 0 0 0 0)
(0.0014927 0.000505062 -1.46408e-19 0.00116723 -5.92983e-19 0.00132546)