/*--------------------------------*- C++ -*----------------------------------*\
| =========                 |                                                 |
| \\      /  F ield         | OpenFOAM: The Open Source CFD Toolbox           |
|  \\    /   O peration     | Version:  2312                                  |
|   \\  /    A nd           | Website:  www.openfoam.com                      |
|    \\/     M anipulation  |                                                 |
\*---------------------------------------------------------------------------*/
FoamFile
{
    version     2.0;
    format      ascii;
    arch        "LSB;label=32;scalar=64";
    class       volScalarField;
    location    "300";
    object      turbulenceProperties:I;
}
// * * * * * * * * * * * * * * * * * * * * * * * * * * * * * * * * * * * * * //

dimensions      [0 0 0 0 0 0 0];

internalField   nonuniform List<scalar> 
10720
(
0.00417409
0.00414919
0.00416937
0.00429783
0.00446118
0.00469053
0.00500353
0.00538922
0.00586678
0.006455
0.00717351
0.00806457
0.00918873
0.0106292
0.0125297
0.0150876
0.0186957
0.0238253
0.032017
0.044391
0.0694079
0.111498
0.22826
0.421252
0.50813
0.467106
0.408438
0.366476
0.339438
0.322296
0.311207
0.303482
0.299006
0.296892
0.296953
0.299241
0.307524
0.318114
0.401466
0.00422545
0.00438241
0.00456321
0.00498497
0.00568643
0.00704301
0.0101805
0.0169997
0.0134901
0.00874543
0.00732263
0.00706338
0.00731393
0.00787065
0.00865653
0.00966562
0.0109375
0.012566
0.0146958
0.0175299
0.0214017
0.026717
0.0344033
0.0453549
0.0627046
0.0884334
0.130967
0.186817
0.221532
0.234697
0.238638
0.240293
0.241517
0.242566
0.243552
0.244662
0.246102
0.249517
0.255933
0.00181781
0.00166471
0.00152713
0.00139729
0.00127666
0.00116845
0.00106929
0.000977876
0.000896792
0.000824154
0.000759267
0.000711263
0.000692117
0.000711435
0.000795879
0.000980108
0.00132968
0.00190135
0.00294787
0.00464981
0.00817477
0.0141557
0.0265521
0.0521475
0.0805863
0.108869
0.137021
0.161387
0.17573
0.177737
0.171282
0.161913
0.153572
0.147667
0.144842
0.145274
0.154587
0.167112
0.320435
0.0019835
0.00219085
0.00246967
0.00286755
0.00346267
0.00439659
0.00583206
0.0071562
0.00638604
0.00446937
0.00313729
0.0023428
0.00183793
0.00149019
0.00123554
0.00104047
0.000884659
0.000756381
0.000645196
0.000542947
0.0004387
0.00032547
0.000185344
7.26244e-05
0.000112849
0.00129825
0.0029565
0.00829899
0.0151181
0.02108
0.0257798
0.0293919
0.0322544
0.0347418
0.0371125
0.039602
0.0424667
0.0476504
0.0611858
0.00157866
0.00145473
0.00133328
0.00121904
0.00112078
0.00103363
0.000958199
0.000895763
0.000844876
0.000805012
0.000774136
0.000752523
0.000739239
0.000734154
0.000730208
0.000714845
0.000658636
0.000640886
0.000216254
0.00148593
3.69272e-06
0.00069031
0.000101563
0.00233811
0.00791254
0.0154091
0.0255927
0.0403172
0.0602919
0.0835269
0.105802
0.12242
0.131193
0.134273
0.135563
0.137392
0.144934
0.15291
0.257557
0.00172226
0.00189294
0.00212868
0.00244313
0.00286674
0.00342228
0.00405541
0.00446469
0.00424766
0.00349944
0.00272274
0.00212311
0.00168629
0.00136408
0.00112266
0.000938073
0.000796288
0.000687205
0.000604397
0.000541374
0.00049411
0.000459273
0.000434796
0.000416889
0.00040632
0.000396897
0.000402792
0.000306709
0.000796969
0.00202933
0.00340292
0.00491134
0.00734701
0.0106601
0.0142951
0.0179021
0.0214173
0.0239675
0.0337462
0.00149023
0.0013867
0.00128699
0.00119631
0.00111321
0.00103591
0.000965491
0.000900554
0.00084095
0.000785976
0.000735024
0.000687265
0.000641853
0.000598292
0.000555815
0.000512157
0.000468361
0.000431179
0.000376308
0.000296929
0.000102678
0.000227398
6.40461e-05
0.00123585
0.00280542
0.000352023
0.00123331
0.00152202
0.00416812
0.0127606
0.0277046
0.0484847
0.0717187
0.0924229
0.107768
0.118704
0.13092
0.142701
0.21679
0.00159997
0.00172799
0.00189079
0.00210512
0.00237213
0.002684
0.00299077
0.00316915
0.00308262
0.00273232
0.00229142
0.00189393
0.00157511
0.00132696
0.00113426
0.000982868
0.000863094
0.000767402
0.000690496
0.000627435
0.000575277
0.000531023
0.000491967
0.000454136
0.000417922
0.000387958
0.000364837
0.000347676
0.00032876
0.000305523
0.000263641
0.000208732
0.000577988
0.000761498
0.00145834
0.00340424
0.00626128
0.0101544
0.020709
0.00131452
0.00122932
0.0011455
0.00106626
0.000993144
0.000924166
0.000860433
0.000801984
0.000748361
0.000700056
0.000656893
0.000618864
0.000586186
0.000558869
0.000536887
0.000519393
0.000503007
0.000484769
0.000468355
0.000439819
0.000390548
0.000275532
9.6501e-05
4.39025e-05
0
8.38618e-05
0.000626817
0.00155947
0.00353582
0.00258187
0.00384044
0.00520828
0.0134985
0.0343266
0.0593609
0.0834467
0.105644
0.125472
0.183989
0.00140562
0.00150905
0.00163734
0.00179517
0.00197609
0.00216713
0.0023368
0.00242984
0.00238904
0.00220589
0.00194567
0.0016776
0.0014365
0.0012312
0.00106012
0.000918295
0.0008009
0.000703838
0.000623792
0.000557569
0.000502751
0.000456885
0.000417578
0.000381178
0.00034585
0.000313556
0.000287156
0.000267939
0.000258178
0.000246277
0.000270874
0.000131368
0.000334904
0.000725703
0.0011425
0.00161723
0.000990455
0.00178332
0.00900209
0.00119676
0.00112918
0.00106146
0.000997536
0.000938181
0.000881764
0.000829304
0.000780538
0.000735051
0.000692812
0.000653418
0.000616625
0.00058229
0.000550175
0.00052009
0.00049098
0.000461015
0.000430974
0.000402925
0.000377989
0.000360698
0.0003347
0.000305852
0.000159379
6.74715e-05
4.66128e-05
2.16587e-05
0
0
0.00101842
0.00197158
0.00456034
0.00198514
0.00738778
0.0113146
0.0367193
0.0678952
0.099303
0.152797
0.00126673
0.00134415
0.00143791
0.00155016
0.00167231
0.00179418
0.00189742
0.00195263
0.0019306
0.00182497
0.00166341
0.00148183
0.0013052
0.00114543
0.0010063
0.000887511
0.000787138
0.000702867
0.00063234
0.000573157
0.00052316
0.00048014
0.000441906
0.000405675
0.000370138
0.000337016
0.000307854
0.000282868
0.000261394
0.000243101
0.000227106
0.000212267
0.000188819
0.00015159
4.05127e-06
2.17036e-05
0.000407301
0.000855759
0.00301969
0.00107721
0.00102232
0.000966422
0.00091275
0.000862516
0.000814009
0.000768221
0.000725205
0.000684547
0.00064638
0.000610561
0.000576976
0.000545704
0.000516791
0.000490223
0.000466244
0.000445442
0.000427045
0.000409358
0.000391578
0.000374571
0.000360893
0.00035231
0.000324814
0.000269337
0.000197346
8.45215e-05
5.12387e-05
3.96662e-05
1.25366e-05
0
0
0.000742915
0.00432324
0.00384985
0.00955745
0.0260788
0.0646388
0.119321
0.00113332
0.00119402
0.00126588
0.00134882
0.00143477
0.00151694
0.00158487
0.00162042
0.00160724
0.00154212
0.00143767
0.00131272
0.00118304
0.00105859
0.000944524
0.000842696
0.000753178
0.000675343
0.00060814
0.000550199
0.000500165
0.000456527
0.000417596
0.000381199
0.000346019
0.000313038
0.000283564
0.000257956
0.00023585
0.0002172
0.000202689
0.000192964
0.000187377
0.00018116
0.000174033
0.000118554
3.73255e-05
8.37231e-06
0.000518729
0.000977333
0.000933338
0.000887862
0.000843795
0.000802365
0.000762015
0.000723765
0.000687659
0.000653339
0.000620935
0.000590233
0.000561121
0.000533573
0.000507504
0.000482843
0.000459598
0.000437247
0.000414999
0.000393324
0.000373151
0.000355379
0.000341619
0.000332725
0.000327855
0.000316189
0.000293408
0.000258764
0.000215406
0.000169705
4.98495e-05
4.19867e-05
9.09366e-06
0
0
0.00150636
0.00640932
0.00893216
0.0294064
0.0831679
0.00102149
0.00106849
0.00112329
0.00118505
0.00124697
0.00130456
0.00135167
0.00137591
0.00136756
0.00132527
0.00125504
0.00116728
0.00107171
0.000975606
0.000883769
0.000798844
0.000721927
0.000653415
0.000593069
0.000540188
0.000493827
0.000452847
0.00041588
0.000381243
0.00034793
0.000316648
0.000288369
0.00026327
0.000240846
0.000220657
0.000202612
0.00018648
0.000172026
0.000159066
0.000149778
0.000141072
0.000120366
4.11749e-05
0.000137529
0.000887743
0.000852056
0.000814666
0.000777998
0.000743351
0.000709255
0.000676638
0.000645601
0.000615824
0.000587421
0.000560261
0.000534239
0.00050937
0.000485622
0.000463026
0.000441561
0.000421306
0.000402598
0.000385279
0.00036912
0.000354121
0.000340797
0.00032973
0.000321001
0.000312253
0.000301001
0.000287542
0.000270916
0.000255219
0.000223444
0.000186882
4.0733e-05
3.24624e-05
0
0
0
0.00514025
0.0108881
0.0491609
0.000923105
0.00096015
0.00100279
0.00104972
0.00109557
0.00113746
0.00117139
0.00118863
0.00118316
0.0011545
0.00110579
0.00104294
0.000971942
0.000897764
0.000824199
0.000753743
0.000687892
0.000627478
0.000572786
0.000523681
0.000479712
0.000440147
0.000404001
0.000370089
0.000337656
0.000307118
0.000279304
0.000254478
0.000232322
0.000212535
0.000195133
0.000180435
0.000168802
0.000160572
0.000156177
0.000157972
0.000165463
0.000173021
3.50811e-05
0.000809564
0.000780592
0.000749884
0.000719499
0.000690647
0.000662061
0.000634557
0.000608258
0.000582897
0.000558584
0.000535191
0.000512627
0.000490902
0.000469979
0.000449859
0.000430542
0.00041209
0.000394279
0.00037698
0.000360576
0.000345635
0.000332648
0.000321782
0.0003122
0.000302252
0.000290697
0.000278135
0.000266763
0.000258493
0.000252243
0.000245975
0.000215905
0.000144746
4.41386e-05
0
0
0
0.00652592
0.0242686
0.000837908
0.000867268
0.000900729
0.000936862
0.000971498
0.0010029
0.00102803
0.00104063
0.001037
0.00101693
0.0009822
0.00093636
0.000883097
0.00082569
0.000766987
0.000709057
0.000653332
0.000600877
0.00055224
0.000507634
0.000466951
0.000429778
0.000395447
0.000363156
0.000332336
0.000303297
0.000276697
0.000252767
0.000231232
0.000211769
0.000194283
0.000178801
0.000165292
0.00015425
0.000146081
0.00014527
0.000145917
0.000192077
0.000128541
0.000740435
0.000716758
0.000691397
0.000666095
0.000641955
0.000617878
0.000594546
0.000572142
0.000550392
0.000529416
0.00050909
0.000489329
0.00047014
0.000451486
0.000433388
0.00041588
0.000398985
0.0003828
0.000367429
0.000352953
0.000339612
0.000327608
0.000317038
0.000307334
0.000297148
0.000285408
0.000272487
0.00026029
0.000250578
0.000244466
0.000241271
0.000241966
0.000233045
0.000183252
4.88011e-05
0
0
0.00152538
0.0121886
0.000763334
0.000786832
0.000813434
0.000841649
0.000868277
0.000892378
0.000911408
0.000920828
0.00091838
0.000903967
0.00087861
0.000844572
0.000804203
0.00075964
0.00071285
0.000665427
0.000618587
0.000573333
0.00053036
0.000490055
0.000452523
0.000417624
0.000384972
0.000354054
0.000324528
0.000296645
0.000270918
0.000247593
0.000226502
0.000207422
0.000190319
0.000175334
0.000162687
0.000152896
0.000146248
0.000146266
0.000147641
0.000178614
0.000206465
0.000679324
0.000659913
0.000638912
0.000617804
0.000597611
0.000577336
0.000557602
0.000538572
0.000520013
0.000502034
0.000484525
0.000467402
0.000450665
0.000434285
0.00041827
0.00040265
0.000387469
0.000372813
0.000358629
0.000345019
0.000332342
0.000320876
0.000310668
0.000301249
0.000291532
0.000280574
0.000268512
0.000256696
0.000246526
0.000238635
0.00023274
0.000230807
0.000233314
0.000235822
0.000197089
4.5406e-05
0
0.000869142
0.00718825
0.000697927
0.000716838
0.000738191
0.000760488
0.000781271
0.000800076
0.000814745
0.000821929
0.000820251
0.000809634
0.000790755
0.000765101
0.000734186
0.000699372
0.000662053
0.000623358
0.00058421
0.00054549
0.000507847
0.000471782
0.000437561
0.000405213
0.000374536
0.000345254
0.000317248
0.000290726
0.000266109
0.000243631
0.000223191
0.000204611
0.00018784
0.000172977
0.000160127
0.000149745
0.000142323
0.000141065
0.000143446
0.000165118
0.000215229
0.000625006
0.000609026
0.000591577
0.000573921
0.000556984
0.000539875
0.000523165
0.000506992
0.000491144
0.000475726
0.000460638
0.000445798
0.000431199
0.000416802
0.000402621
0.000388687
0.000375032
0.000361765
0.000348932
0.000336611
0.000325022
0.000314368
0.000304654
0.000295529
0.000286194
0.000275913
0.000264761
0.000253773
0.000244088
0.00023605
0.000229387
0.000224373
0.000222559
0.000226008
0.000239392
0.000177748
6.97063e-06
0.000492989
0.00413646
0.000640208
0.000655529
0.000672797
0.000690613
0.000707044
0.000721908
0.000733377
0.000738935
0.000737755
0.000729787
0.000715485
0.000695853
0.000671919
0.000644584
0.000614737
0.000583178
0.000550586
0.00051765
0.000484934
0.000452913
0.000421924
0.000392111
0.000363441
0.000335835
0.000309309
0.000284091
0.000260526
0.00023884
0.000219
0.000200885
0.000184473
0.000169896
0.000157321
0.000147209
0.000140047
0.000138541
0.000141031
0.000158489
0.000205843
0.000576556
0.000563349
0.000548815
0.00053402
0.000519799
0.000505366
0.000491214
0.000477478
0.000463971
0.000450779
0.000437823
0.000425011
0.000412344
0.000399784
0.000387328
0.000375003
0.000362835
0.000350935
0.000339339
0.00032809
0.000317365
0.0003074
0.000298198
0.000289474
0.000280607
0.000271003
0.0002607
0.000250523
0.000241458
0.000233825
0.000227425
0.00022212
0.000218335
0.000217107
0.000222607
0.000253193
8.20807e-06
0.000158098
0.00206337
0.000589017
0.000601506
0.000615552
0.000629915
0.000643055
0.00065491
0.000663955
0.000668333
0.000667471
0.000661373
0.000650354
0.000635146
0.000616441
0.000594813
0.000570883
0.000545151
0.000518073
0.000490177
0.000461914
0.000433694
0.000405843
0.000378584
0.000351996
0.000326155
0.000301184
0.000277318
0.000254872
0.000234059
0.000214892
0.000197303
0.000181284
0.000166965
0.00015449
0.000144287
0.000136853
0.000134814
0.00013681
0.000152537
0.000194782
0.000533152
0.000522196
0.000510069
0.00049764
0.000485685
0.000473508
0.000461517
0.000449853
0.000438352
0.000427081
0.000415976
0.00040495
0.000393991
0.00038306
0.000372143
0.000361272
0.000350476
0.000339828
0.00032941
0.000319257
0.000309462
0.000300252
0.000291629
0.000283365
0.00027499
0.000266037
0.000256507
0.000247055
0.00023853
0.000231288
0.000225217
0.000220278
0.000216398
0.000214935
0.000210496
0.000243273
0.000180257
1.83055e-05
0.000527933
0.000543388
0.000553617
0.000565108
0.000576762
0.000587364
0.000596883
0.000604082
0.000607555
0.000606906
0.000602155
0.000593548
0.000581608
0.000566837
0.000549616
0.000530337
0.000509333
0.00048688
0.000463328
0.000439016
0.000414279
0.000389429
0.000364698
0.000340222
0.000316143
0.000292705
0.000270188
0.000248865
0.000228937
0.000210458
0.0001934
0.000177783
0.000163743
0.000151437
0.000141292
0.000133784
0.000131372
0.000132891
0.000146744
0.000184576
0.000494101
0.000484999
0.00047486
0.000464405
0.000454358
0.000444078
0.000433927
0.000424036
0.000414258
0.000404653
0.000395156
0.000385688
0.000376237
0.00036676
0.000357253
0.000347725
0.000338202
0.000328735
0.000319427
0.000310288
0.00030137
0.000292882
0.000284847
0.00027709
0.000269238
0.000260927
0.000252141
0.000243391
0.000235387
0.000228503
0.000222698
0.000218026
0.000214365
0.000213134
0.000209766
0.000218569
0.000248869
1.19917e-05
0.00013764
0.000502539
0.00051093
0.000520379
0.000529886
0.000538503
0.000546185
0.000551942
0.000554709
0.00055419
0.000550424
0.000543602
0.00053413
0.000522362
0.000508542
0.000492947
0.000475747
0.000457122
0.000437281
0.000416454
0.00039489
0.000372841
0.000350535
0.000328133
0.000305851
0.000283978
0.000262821
0.000242636
0.000223621
0.00020586
0.000189363
0.000174167
0.000160413
0.000148256
0.000138104
0.000130419
0.000127541
0.000128589
0.000140732
0.00017487
0.00045883
0.000451264
0.00044277
0.000433977
0.000425529
0.000416854
0.000408269
0.000399895
0.000391589
0.000383414
0.000375312
0.000367205
0.00035909
0.000350916
0.000342667
0.000334351
0.000325987
0.000317614
0.000309333
0.000301154
0.000293102
0.000285341
0.000277914
0.000270695
0.00026339
0.000255706
0.000247628
0.000239552
0.000232068
0.00022554
0.000219991
0.000215487
0.000212067
0.000210347
0.000210602
0.000204525
0.000260025
1.95755e-05
6.30434e-07
0.000465808
0.000472708
0.000480491
0.000488283
0.000495323
0.000501541
0.00050616
0.000508368
0.000507928
0.000504891
0.000499414
0.000491804
0.00048233
0.000471167
0.000458477
0.000444364
0.000428895
0.000412203
0.000394411
0.000375694
0.00035624
0.000336233
0.000315846
0.000295326
0.000275006
0.000255194
0.00023615
0.000218063
0.000201037
0.000185116
0.000170354
0.000156894
0.000144896
0.000134754
0.000126914
0.000123584
0.000124169
0.000134719
0.000165436
0.000426862
0.000420566
0.000413445
0.000406055
0.000398949
0.00039164
0.000384387
0.000377307
0.00037027
0.000363335
0.000356445
0.000349535
0.000342587
0.000335558
0.000328431
0.000321208
0.000313905
0.000306542
0.000299212
0.000291932
0.000284708
0.00027765
0.000270836
0.000264173
0.000257424
0.000250357
0.000242956
0.00023553
0.000228566
0.000222407
0.000217127
0.000212779
0.00020956
0.000207416
0.000208929
0.000201937
0.000239634
0.000153776
2.28155e-05
0.000432635
0.000438318
0.00044474
0.000451142
0.000456919
0.000461956
0.000465667
0.000467419
0.000467021
0.000464525
0.000460068
0.000453891
0.000446198
0.000437105
0.000426723
0.000415092
0.000402224
0.000388179
0.00037301
0.00035681
0.000339718
0.000321883
0.000303448
0.000284642
0.000265821
0.000247341
0.00022944
0.000212293
0.00019602
0.000180692
0.000166376
0.000153217
0.000141375
0.000131228
0.000123204
0.000119398
0.00011952
0.000128689
0.000156243
0.000397788
0.000392542
0.000386583
0.000380366
0.000374406
0.000368253
0.000362143
0.000356168
0.000350224
0.000344356
0.000338515
0.000332637
0.000326712
0.000320693
0.00031457
0.00030833
0.000301984
0.000295553
0.000289098
0.000282653
0.000276212
0.000269838
0.000263635
0.000257537
0.000251348
0.000244881
0.000238124
0.000231321
0.000224872
0.000219091
0.000214091
0.000209925
0.000206832
0.000204663
0.000205476
0.000202852
0.000216763
0.000218216
7.85418e-05
0.00040256
0.00040724
0.000412543
0.000417818
0.000422555
0.000426642
0.000429617
0.000430999
0.000430615
0.000428529
0.000424854
0.000419781
0.000413474
0.00040601
0.00039746
0.000387835
0.000377105
0.000365274
0.000352352
0.000338376
0.000323413
0.000307564
0.000290952
0.000273809
0.000256481
0.00023931
0.000222534
0.000206325
0.000190812
0.000176084
0.000162223
0.000149367
0.000137685
0.000127527
0.000119308
0.000115021
0.00011468
0.00012264
0.000147296
0.000371257
0.000366892
0.000361909
0.000356689
0.000351696
0.000346533
0.000341394
0.000336372
0.000331365
0.000326418
0.000321486
0.000316512
0.000311485
0.000306363
0.000301124
0.000295763
0.00029028
0.000284691
0.000279032
0.000273359
0.000267658
0.000261946
0.000256339
0.000250801
0.000245165
0.000239281
0.000233139
0.000226932
0.000220988
0.00021559
0.000210873
0.000206912
0.000203898
0.000201899
0.000201661
0.000202406
0.000203696
0.000225825
0.00016117
0.000375198
0.000379044
0.000383426
0.000387779
0.00039165
0.000394963
0.000397344
0.00039841
0.000398025
0.000396249
0.000393178
0.000388967
0.000383744
0.000377571
0.000370487
0.00036248
0.000353503
0.000343528
0.000332516
0.000320467
0.000307409
0.00029339
0.000278489
0.000262921
0.000247023
0.00023112
0.000215449
0.000200174
0.000185427
0.000171308
0.000157909
0.000145362
0.000133838
0.000123659
0.000115226
0.000110442
0.000109636
0.000116587
0.000138648
0.000346974
0.000343352
0.00033919
0.000334818
0.000330648
0.00032633
0.000322022
0.000317816
0.000313618
0.000309466
0.000305322
0.000301134
0.000296889
0.000292548
0.000288092
0.000283511
0.0002788
0.000273972
0.000269048
0.000264094
0.00025908
0.000254003
0.000248974
0.000243983
0.00023889
0.000233568
0.000228011
0.000222371
0.000216919
0.000211906
0.000207475
0.000203727
0.00020079
0.000198928
0.000198057
0.000199812
0.000198285
0.000213984
0.000200251
0.000350222
0.000353374
0.000356993
0.000360583
0.000363737
0.000366409
0.000368303
0.000369109
0.000368712
0.000367172
0.000364565
0.000361025
0.000356662
0.000351513
0.000345605
0.000338908
0.000331366
0.000322934
0.000313551
0.000303175
0.00029179
0.000279421
0.000266113
0.000252032
0.000237486
0.000222806
0.000208215
0.000193864
0.000179883
0.000166377
0.000153443
0.000141206
0.000129836
0.000119624
0.000110961
0.000105667
0.000104395
0.00011051
0.000130282
0.000324688
0.00032169
0.00031823
0.000314574
0.00031111
0.000307511
0.000303917
0.000300413
0.000296911
0.000293446
0.000289982
0.000286474
0.000282911
0.000279256
0.000275491
0.000271601
0.000267583
0.000263443
0.00025919
0.000254887
0.000250504
0.000246028
0.000241555
0.000237091
0.000232526
0.000227746
0.000222744
0.000217645
0.00021267
0.000208039
0.000203898
0.000200361
0.000197527
0.000195711
0.000194614
0.000195975
0.000195409
0.000201416
0.000207482
0.000327359
0.000329926
0.000332908
0.000335863
0.000338421
0.000340565
0.000342056
0.00034264
0.000342223
0.000340857
0.000338621
0.000335616
0.000331932
0.000327597
0.000322629
0.000316999
0.000310637
0.000303486
0.000295473
0.000286535
0.000276631
0.000265739
0.000253875
0.000241176
0.000227923
0.00021442
0.000200872
0.000187425
0.000174199
0.000161303
0.000148835
0.000136911
0.000125692
0.000115434
0.000106519
0.000100698
9.89634e-05
0.000104419
0.000122218
0.000304182
0.000301713
0.000298845
0.000295803
0.000292941
0.000289957
0.000286979
0.000284075
0.000281175
0.000278302
0.00027543
0.000272514
0.000269546
0.000266491
0.00026333
0.000260052
0.000256648
0.000253121
0.000249474
0.00024576
0.000241959
0.000238051
0.000234105
0.000230147
0.000226088
0.000221824
0.000217347
0.000212761
0.000208246
0.000203992
0.000200142
0.000196813
0.000194097
0.000192276
0.000191129
0.000191746
0.000192255
0.000192699
0.000201566
0.000306368
0.000308447
0.000310893
0.000313315
0.000315376
0.000317082
0.000318233
0.000318631
0.00031819
0.000316961
0.00031501
0.000312427
0.000309284
0.000305607
0.000301404
0.000296634
0.000291239
0.000285155
0.000278298
0.00027059
0.000261974
0.000252399
0.000241849
0.00023043
0.000218386
0.000205999
0.00019345
0.000180879
0.000168397
0.000156108
0.000144106
0.000132495
0.00012142
0.000111106
0.000101915
9.55392e-05
9.33362e-05
9.83121e-05
0.000114471
0.000285271
0.000283249
0.000280883
0.00027837
0.000276018
0.000273563
0.000271112
0.000268727
0.000266341
0.000263982
0.000261618
0.000259216
0.000256763
0.000254232
0.000251604
0.000248864
0.000246006
0.000243026
0.000239927
0.000236748
0.000233479
0.0002301
0.00022665
0.000223171
0.00021959
0.000215813
0.000211831
0.00020773
0.000203654
0.00019977
0.000196209
0.00019309
0.000190497
0.000188663
0.000187477
0.000187477
0.000188225
0.00018666
0.000192681
0.000287044
0.00028872
0.000290713
0.000292687
0.000294332
0.000295671
0.00029654
0.000296774
0.000296306
0.000295181
0.000293459
0.000291216
0.00028851
0.000285358
0.000281766
0.000277702
0.000273104
0.000267905
0.00026202
0.000255367
0.000247869
0.000239458
0.000230092
0.000219841
0.000208918
0.000197574
0.000185985
0.000174261
0.000162505
0.000150816
0.000139277
0.000127977
0.000117045
0.000106661
9.7167e-05
9.02008e-05
8.75205e-05
9.21814e-05
0.000107032
0.000267791
0.000266147
0.00026421
0.000262151
0.000260234
0.000258234
0.000256236
0.000254296
0.000252357
0.000250437
0.000248515
0.000246557
0.000244553
0.000242478
0.000240313
0.000238048
0.00023567
0.000233177
0.00023057
0.000227871
0.000225089
0.000222192
0.000219201
0.00021617
0.000213042
0.000209726
0.00020621
0.000202565
0.000198909
0.000195381
0.000192105
0.000189193
0.000186725
0.000184889
0.000183633
0.000183211
0.00018361
0.000181549
0.000184282
0.000269215
0.000270551
0.000272162
0.000273759
0.000275055
0.000276084
0.000276718
0.000276816
0.000276319
0.000275275
0.000273734
0.000271758
0.0002694
0.000266678
0.00026359
0.0002601
0.000256155
0.000251693
0.000246627
0.000240867
0.000234333
0.000226944
0.000218637
0.000209452
0.000199569
0.000189203
0.000178519
0.000167605
0.000156556
0.000145453
0.000134372
0.000123382
0.00011259
0.000102127
9.22966e-05
8.46875e-05
8.15078e-05
8.60434e-05
9.99245e-05
0.000251599
0.00025028
0.000248709
0.000247034
0.000245494
0.000243881
0.000242273
0.000240715
0.000239161
0.000237622
0.000236081
0.000234506
0.000232892
0.000231212
0.000229452
0.000227602
0.000225648
0.000223587
0.000221417
0.00021915
0.000216805
0.000214352
0.000211787
0.000209175
0.000206467
0.000203579
0.000200495
0.000197275
0.000194017
0.000190832
0.000187834
0.000185126
0.000182785
0.000180952
0.00017961
0.000178878
0.000178737
0.000176484
0.000176813
0.000252732
0.00025378
0.000255065
0.000256346
0.000257349
0.000258117
0.000258553
0.000258533
0.000258011
0.000257028
0.000255633
0.000253876
0.000251801
0.000249424
0.000246744
0.00024373
0.000240326
0.000236472
0.000232093
0.000227097
0.000221396
0.000214897
0.000207526
0.000199299
0.000190364
0.000180914
0.000171079
0.00016094
0.000150572
0.000140043
0.000129416
0.000118738
0.000108082
9.75326e-05
8.73348e-05
7.90117e-05
7.52909e-05
7.99012e-05
9.31469e-05
0.000236573
0.000235529
0.000234273
0.000232927
0.000231708
0.00023043
0.000229154
0.000227927
0.000226703
0.000225492
0.000224279
0.000223037
0.000221759
0.000220423
0.000219017
0.000217527
0.000215944
0.000214263
0.00021248
0.000210602
0.000208649
0.000206596
0.000204425
0.000202198
0.000199878
0.000197385
0.000194703
0.000191879
0.000188992
0.000186136
0.000183406
0.000180896
0.00017868
0.000176864
0.000175427
0.000174439
0.000173784
0.000171272
0.000169966
0.000237461
0.000238267
0.000239276
0.000240289
0.000241046
0.000241593
0.000241862
0.000241744
0.000241199
0.000240263
0.000238984
0.000237404
0.000235562
0.000233469
0.000231122
0.000228495
0.000225539
0.000222199
0.000218395
0.000214044
0.000209058
0.000203339
0.000196797
0.000189434
0.000181365
0.000172756
0.000163716
0.00015431
0.000144594
0.000134624
0.000124444
0.000114077
0.000103561
9.29228e-05
8.2324e-05
7.3189e-05
6.88537e-05
7.3774e-05
8.67205e-05
0.000222607
0.000221796
0.00022081
0.000219745
0.0002188
0.000217809
0.000216818
0.000215877
0.000214934
0.000214008
0.000213077
0.000212121
0.000211132
0.000210094
0.000208992
0.000207817
0.000206559
0.000205211
0.000203771
0.000202239
0.000200639
0.000198942
0.000197131
0.000195254
0.000193288
0.00019116
0.000188848
0.000186391
0.00018385
0.000181303
0.000178832
0.000176517
0.000174417
0.000172628
0.000171107
0.000169889
0.00016879
0.000165967
0.000163493
0.000223285
0.000223889
0.000224666
0.00022545
0.000226
0.000226365
0.000226491
0.00022629
0.000225723
0.000224826
0.00022364
0.000222205
0.000220551
0.000218693
0.000216624
0.000214319
0.000211734
0.000208818
0.0002055
0.000201698
0.000197323
0.000192279
0.00018647
0.000179877
0.000172593
0.000164756
0.000156456
0.000147741
0.000138651
0.000129225
0.000119486
0.000109435
9.90711e-05
8.83499e-05
7.73218e-05
6.72441e-05
6.21616e-05
6.76865e-05
8.06618e-05
0.000209604
0.000208992
0.000208234
0.00020741
0.0002067
0.000205953
0.00020521
0.00020451
0.000203811
0.000203127
0.00020244
0.000201729
0.000200992
0.000200211
0.000199373
0.000198472
0.000197496
0.000196439
0.000195301
0.000194075
0.000192786
0.000191408
0.000189918
0.000188362
0.000186718
0.000184919
0.000182944
0.000180824
0.000178605
0.000176349
0.000174122
0.000171995
0.000170015
0.000168249
0.000166661
0.000165228
0.000163753
0.000160626
0.000157274
0.000210103
0.000210539
0.00021112
0.000211708
0.000212085
0.000212298
0.000212305
0.000212033
0.000211447
0.000210583
0.000209476
0.000208159
0.000206662
0.000204995
0.000203156
0.000201118
0.000198843
0.000196284
0.000193374
0.000190038
0.000186191
0.000181732
0.000176565
0.000170658
0.00016408
0.000156951
0.000149337
0.000141272
0.000132779
0.000123881
0.000114582
0.000104855
9.46585e-05
8.3873e-05
7.24035e-05
6.12189e-05
5.51591e-05
6.16926e-05
7.50029e-05
0.000197478
0.000197037
0.000196472
0.000195856
0.000195346
0.000194807
0.000194276
0.000193784
0.000193295
0.000192818
0.00019234
0.000191841
0.000191318
0.000190757
0.000190148
0.00018948
0.00018875
0.000187949
0.000187073
0.000186117
0.000185102
0.000184006
0.000182805
0.000181535
0.000180181
0.000178681
0.000177013
0.000175198
0.000173274
0.000171287
0.000169291
0.000167341
0.000165477
0.000163745
0.000162098
0.000160481
0.000158686
0.000155304
0.000151287
0.000197827
0.000198121
0.000198539
0.000198959
0.000199193
0.000199279
0.000199187
0.000198855
0.000198255
0.000197417
0.000196374
0.000195159
0.000193794
0.000192287
0.000190637
0.000188822
0.000186807
0.000184548
0.000181985
0.000179045
0.000175648
0.000171697
0.000167093
0.000161796
0.000155857
0.00014937
0.000142391
0.000134935
0.000127012
0.000118626
0.000109765
0.000100375
9.03743e-05
7.95664e-05
6.76757e-05
5.51985e-05
4.77453e-05
5.5885e-05
6.97903e-05
0.000186156
0.000185859
0.00018546
0.00018502
0.000184681
0.000184321
0.00018397
0.000183655
0.000183345
0.000183046
0.000182746
0.000182427
0.000182089
0.000181716
0.000181302
0.00018084
0.000180321
0.000179739
0.00017909
0.00017837
0.000177596
0.000176749
0.000175805
0.00017479
0.000173693
0.00017246
0.000171068
0.000169529
0.000167873
0.000166135
0.000164354
0.000162574
0.000160822
0.000159127
0.000157434
0.000155668
0.000153599
0.000150007
0.000145514
0.000186379
0.000186553
0.000186834
0.000187114
0.000187227
0.000187208
0.000187035
0.000186655
0.000186043
0.000185228
0.000184243
0.00018311
0.000181854
0.000180484
0.000178996
0.000177368
0.00017557
0.000173565
0.000171295
0.000168692
0.000165683
0.000162175
0.000158064
0.000153306
0.000147941
0.00014204
0.000135647
0.000128762
0.000121381
0.000113495
0.000105073
9.60418e-05
8.62771e-05
7.55138e-05
6.32763e-05
4.93545e-05
3.97097e-05
5.04377e-05
6.50796e-05
0.000175571
0.000175396
0.000175138
0.000174847
0.000174653
0.000174446
0.000174247
0.000174084
0.000173927
0.000173778
0.00017363
0.000173466
0.000173284
0.000173074
0.000172827
0.000172538
0.0001722
0.000171807
0.000171357
0.000170843
0.000170277
0.000169648
0.000168928
0.000168138
0.000167268
0.000166272
0.000165125
0.000163835
0.000162422
0.000160909
0.000159327
0.000157706
0.000156063
0.000154409
0.000152686
0.000150794
0.000148509
0.000144764
0.000139942
0.000175688
0.000175763
0.000175928
0.000176091
0.000176103
0.000175998
0.000175758
0.00017534
0.000174722
0.000173928
0.000172991
0.000171931
0.00017077
0.000169514
0.000168161
0.000166692
0.000165081
0.00016329
0.000161269
0.000158958
0.000156284
0.000153158
0.000149481
0.000145203
0.00014035
0.000134984
0.00012913
0.000122779
0.000115916
0.00010852
0.000100543
9.18945e-05
8.24203e-05
7.17992e-05
5.93749e-05
4.40493e-05
3.06081e-05
4.56518e-05
6.09413e-05
0.000165664
0.000165591
0.00016545
0.000165288
0.000165216
0.000165138
0.00016507
0.000165036
0.000165007
0.000164987
0.000164968