/*--------------------------------*- C++ -*----------------------------------*\
| =========                 |                                                 |
| \\      /  F ield         | OpenFOAM: The Open Source CFD Toolbox           |
|  \\    /   O peration     | Version:  2312                                  |
|   \\  /    A nd           | Website:  www.openfoam.com                      |
|    \\/     M anipulation  |                                                 |
\*---------------------------------------------------------------------------*/
FoamFile
{
    version     2.0;
    format      ascii;
    arch        "LSB;label=32;scalar=64";
    class       volScalarField;
    location    "300";
    object      turbulenceProperties:L;
}
// * * * * * * * * * * * * * * * * * * * * * * * * * * * * * * * * * * * * * //

dimensions      [0 1 0 0 0 0 0];

internalField   nonuniform List<scalar> 
10720
(
0.00178901
0.00171326
0.00164688
0.00158328
0.00154542
0.00152524
0.00152697
0.0015552
0.00161197
0.00170014
0.0018253
0.00199348
0.00221108
0.00249257
0.00286036
0.0033455
0.0040096
0.00491204
0.00628204
0.0081713
0.0117188
0.0166934
0.0291206
0.0467245
0.0546974
0.0564693
0.0575928
0.0591813
0.0606071
0.0614615
0.0618577
0.0620504
0.0621919
0.0623486
0.0625894
0.0629553
0.0638541
0.0646837
0.0652168
0.00188262
0.00198083
0.00214021
0.00233245
0.00260278
0.00298919
0.00351424
0.00403357
0.00396989
0.00348085
0.00297235
0.00260102
0.00237741
0.00228689
0.00231399
0.00244691
0.00268207
0.00302778
0.00350736
0.00416029
0.00506155
0.00630275
0.00809974
0.0106561
0.0146851
0.0206318
0.0304419
0.0433077
0.0512746
0.0542883
0.0551794
0.0555188
0.0557282
0.0558723
0.0559807
0.0560831
0.0562072
0.0564334
0.0565261
0.00386713
0.00387779
0.0039002
0.00395785
0.00405238
0.00416992
0.00432262
0.00451607
0.00473534
0.00498427
0.0052623
0.00548411
0.00552488
0.005345
0.00500119
0.00478937
0.00499067
0.00555582
0.00657341
0.00776954
0.010122
0.0130481
0.0187153
0.0300982
0.0414603
0.0541693
0.0690838
0.0853834
0.101212
0.115576
0.129267
0.143057
0.155798
0.166578
0.175321
0.182094
0.186347
0.187516
0.18148
0.003885
0.003912
0.0039686
0.00405726
0.00418849
0.00438236
0.00464778
0.00495698
0.00530262
0.00572786
0.00624537
0.0068294
0.00747716
0.00820238
0.00901966
0.00994338
0.0110084
0.0122571
0.0138296
0.0160363
0.0198628
0.0282128
0.0605289
0.233912
0.116792
0.0106136
0.0213764
0.057845
0.107128
0.156016
0.194567
0.215836
0.222321
0.221016
0.217006
0.212399
0.207406
0.198332
0.17524
0.00473332
0.00475238
0.00480716
0.00489455
0.00499127
0.00510445
0.00522707
0.00534535
0.00545395
0.0055432
0.00561574
0.00565952
0.00567289
0.00565212
0.0056423
0.00572608
0.00617581
0.00632956
0.0270997
0.00542501
10.9069
0.00660225
0.0425927
0.0156874
0.025391
0.0341491
0.0445193
0.0587939
0.0773417
0.09841
0.119646
0.139466
0.158552
0.178038
0.197644
0.216556
0.233712
0.249316
0.245458
0.00471478
0.00471739
0.00472344
0.00476572
0.00484395
0.00498464
0.00520067
0.00548564
0.00579769
0.00618174
0.00669431
0.00733574
0.00809955
0.00899189
0.0100028
0.0111262
0.0123234
0.0135431
0.0146998
0.0157422
0.0166069
0.0172546
0.0176526
0.0178907
0.0179247
0.0179578
0.0174192
0.022841
0.0157151
0.0446816
0.101272
0.175186
0.221674
0.241584
0.252164
0.258865
0.261738
0.273187
0.24608
0.00514911
0.00514376
0.00515672
0.00517832
0.00522379
0.00529375
0.00538506
0.00550598
0.00565471
0.00583415
0.0060474
0.00630002
0.00660043
0.00695701
0.00738464
0.00793251
0.00861725
0.00933431
0.0107163
0.0143037
0.068558
0.0223845
0.152052
0.00643269
0.0154703
0.0120892
0.0131434
0.0408087
0.0747155
0.0822575
0.103073
0.12759
0.152203
0.175441
0.198526
0.222893
0.24755
0.27281
0.280567
0.00517697
0.00522006
0.00528992
0.00537787
0.00549462
0.00565958
0.00587235
0.00612738
0.00643164
0.00681926
0.00730408
0.00786729
0.00849097
0.00916704
0.00988454
0.0106364
0.0114028
0.0121665
0.0129044
0.0136157
0.0142892
0.0149394
0.0156042
0.0164091
0.0173813
0.0183362
0.0191715
0.0198514
0.0207705
0.0221788
0.0255437
0.032225
0.0458619
0.156873
0.240406
0.235042
0.245778
0.257448
0.242395
0.0059453
0.00595056
0.00597394
0.00601632
0.00608371
0.0061788
0.00629992
0.00644942
0.00662739
0.00682754
0.00704686
0.00727842
0.00751106
0.00773386
0.00793527
0.00811724
0.00832423
0.00860548
0.00890787
0.00949236
0.0107167
0.0163077
0.076345
0.259684
0
0.105691
0.00741665
0.00918048
0.0208667
0.0170339
0.0349093
0.127116
0.186822
0.184896
0.202622
0.224515
0.249951
0.280393
0.298138
0.00595301
0.00597415
0.00601699
0.00608751
0.00619132
0.00634788
0.00655181
0.00679429
0.007085
0.00745149
0.00790039
0.0084288
0.00903574
0.00972619
0.0105022
0.0113635
0.0123023
0.0133027
0.0143386
0.0153895
0.0164304
0.0174557
0.0184895
0.0196688
0.0211329
0.0228227
0.024498
0.0258947
0.0266007
0.0276281
0.0253461
0.058437
0.0235878
0.0396206
0.0722492
0.118268
0.0873848
0.11005
0.19212
0.00656667
0.00655271
0.00655404
0.00656577
0.00659826
0.00665196
0.00672597
0.00682544
0.00695147
0.00710454
0.00728809
0.00750349
0.00775194
0.00803589
0.00835776
0.00873593
0.00921298
0.00979386
0.010448
0.011146
0.0117375
0.0126942
0.0139861
0.0327314
0.119696
0.214736
0.701656
0
0
0.0100429
0.016023
0.0347416
0.0168515
0.106226
0.312218
0.250133
0.257469
0.283182
0.305268
0.00659662
0.00663869
0.00670139
0.00678688
0.00690159
0.00706156
0.0072602
0.00749316
0.00777381
0.00812406
0.0085469
0.00904096
0.00960411
0.0102362
0.0109344
0.011691
0.0124943
0.0133279
0.0141724
0.0150136
0.0158436
0.0166742
0.0175446
0.0185618
0.0198307
0.0213176
0.02293
0.0246033
0.0263299
0.0280809
0.0298941
0.0319011
0.0357864
0.0448901
8.29175
0.666615
0.0504137
0.0603094
0.099014
0.00730111
0.00728514
0.0072826
0.00729183
0.00732105
0.00737248
0.00744627
0.00754671
0.00767606
0.00783473
0.00802478
0.00824698
0.00850022
0.00878271
0.00909258
0.00942246
0.0097548
0.0100983
0.0104892
0.0109507
0.0114651
0.0119533
0.0123469
0.0134741
0.0165519
0.0244017
0.0818551
0.173623
0.260044
1.52413
0
0
0.0109045
0.0444052
0.041737
0.222507
0.309768
0.294221
0.308959
0.00733126
0.00737268
0.00743426
0.00752162
0.00763971
0.00779966
0.00799197
0.00821869
0.00849217
0.00882589
0.00922288
0.00968408
0.0102108
0.0108059
0.0114707
0.0122032
0.0129997
0.0138511
0.0147445
0.0156699
0.0166194
0.0175994
0.0186428
0.0198431
0.0213118
0.0230544
0.0250006
0.0270866
0.0292887
0.0315346
0.0335994
0.0351828
0.0362142
0.0374917
0.0391636
0.0618792
0.336084
3.42201
0.0221022
0.00801966
0.00799243
0.00797639
0.00796995
0.00798088
0.00801098
0.00805967
0.00813168
0.0082289
0.00835182
0.00850396
0.00868662
0.00890114
0.00914972
0.00943432
0.00975597
0.0101275
0.0105728
0.0110895
0.011656
0.0122392
0.0127677
0.0131855
0.013518
0.0142037
0.0155435
0.0179511
0.022233
0.0300227
0.175942
0.231605
2.37291
0
0
0.0253974
0.0852885
0.187726
0.335795
0.316479
0.00806109
0.00811188
0.00818153
0.00827679
0.00840104
0.00856302
0.00875114
0.00897357
0.00924084
0.00955966
0.00993487
0.0103677
0.0108606
0.0114174
0.0120397
0.0127253
0.0134712
0.0142685
0.0151056
0.0159731
0.0168667
0.017794
0.0187867
0.0199206
0.0212838
0.0228854
0.0246791
0.0266342
0.0287731
0.0311285
0.033695
0.036482
0.0395103
0.0427898
0.0456663
0.0487411
0.058393
0.292277
0.0612792
0.00878067
0.00874628
0.00872147
0.00870608
0.00870664
0.00872537
0.00876219
0.00882198
0.0089067
0.00901766
0.00915814
0.00932998
0.0095348
0.00977479
0.0100509
0.0103655
0.0107183
0.0111014
0.0115176
0.0119724
0.0124638
0.0129699
0.013462
0.0139353
0.0145
0.0152943
0.0163387
0.0177105
0.0192121
0.0223743
0.0277536
0.244722
0.35301
0
0
0
0.0916154
0.309342
0.333319
0.00882846
0.00888476
0.00895917
0.00906093
0.0091899
0.00935315
0.00953921
0.00975885
0.0100203
0.0103263
0.0106818
0.0110891
0.0115511
0.0120729
0.0126574
0.0133051
0.0140153
0.014784
0.0156048
0.0164719
0.0173838
0.0183497
0.0193996
0.0205971
0.0220194
0.023691
0.0255796
0.0276557
0.0299303
0.0324182
0.0350837
0.0377982
0.0403521
0.0424722
0.0438472
0.0436586
0.0422656
0.0409669
0.45288
0.00956326
0.00951974
0.0094839
0.00945644
0.00944374
0.00944701
0.00946676
0.00950775
0.0095715
0.00965946
0.00977509
0.00992016
0.0100966
0.0103069
0.0105531
0.010838
0.0111626
0.0115358
0.0119655
0.0124438
0.0129506
0.0134617
0.0139617
0.0144836
0.0151157
0.0159461
0.0169706
0.0180624
0.0190662
0.0200212
0.0210703
0.0244559
0.0400159
0.229573
0
0
0
0.147384
0.353769
0.00961984
0.00968333
0.00976427
0.00987375
0.0100082
0.0101724
0.0103585
0.0105768
0.0108326
0.0111274
0.0114658
0.01185
0.0122842
0.0127741
0.0133232
0.0139333
0.0146059
0.0153383
0.0161274
0.0169697
0.0178651
0.0188232
0.0198709
0.0210594
0.0224545
0.0240811
0.0259174
0.0279422
0.0301712
0.0326338
0.0353325
0.0382344
0.0412943
0.0442929
0.0469423
0.0475354
0.0478513
0.0374679
0.0652022
0.0103787
0.0103267
0.0102807
0.0102423
0.0102179
0.0102079
0.0102139
0.0102396
0.0102874
0.0103585
0.0104566
0.0105837
0.0107419
0.0109343
0.0111629
0.01143
0.0117383
0.0120882
0.0124787
0.0129091
0.0133703
0.0138519
0.0143466
0.0148807
0.0155315
0.0163815
0.0174414
0.0186053
0.0197281
0.0206846
0.0214948
0.0220729
0.0235117
0.0309204
0.205332
0
0
0.0499136
0.318636
0.0104436
0.0105139
0.0106008
0.0107181
0.0108582
0.0110235
0.0112109
0.0114291
0.0116798
0.0119645
0.012288
0.0126521
0.013061
0.0135212
0.0140373
0.0146125
0.0152501
0.0159507
0.016713
0.0175368
0.0184255
0.0193896
0.0204539
0.0216629
0.0230725
0.0247102
0.0265665
0.0286266
0.0309034
0.0334198
0.0361685
0.0390869
0.042047
0.0447699
0.0469652
0.0472724
0.0473414
0.0399441
0.0355498
0.0112259
0.0111646
0.0111079
0.0110581
0.0110212
0.0109974
0.0109882
0.0109979
0.0110283
0.0110807
0.0111588
0.0112645
0.0114002
0.0115689
0.0117728
0.0120148
0.012297
0.0126204
0.0129901
0.0134065
0.0138578
0.0143312
0.0148225
0.015355
0.0159943
0.0168146
0.017836
0.018987
0.0201566
0.021268
0.0223174
0.0231006
0.0235563
0.0240797
0.0295623
0.240909
0
0.0364317
0.213618
0.0112993
0.0113774
0.0114707
0.0115958
0.0117419
0.0119094
0.012099
0.0123177
0.0125641
0.0128404
0.0131506
0.0134966
0.0138828
0.0143166
0.0148024
0.0153448
0.0159492
0.0166178
0.0173529
0.0181556
0.0190305
0.019989
0.0210555
0.0222688
0.0236735
0.0252981
0.0271404
0.0291917
0.0314645
0.0339821
0.0367476
0.0397181
0.042813
0.0457988
0.0483406
0.0490756
0.0487973
0.0430619
0.0340647
0.0121084
0.0120375
0.01197
0.0119088
0.0118597
0.0118225
0.0117988
0.0117931
0.0118072
0.0118424
0.0119023
0.0119888
0.0121045
0.0122527
0.0124355
0.0126558
0.0129163
0.0132172
0.0135608
0.0139475
0.0143711
0.0148234
0.0153039
0.015833
0.0164631
0.0172564
0.0182327
0.0193364
0.0204768
0.0216066
0.0227327
0.023814
0.024671
0.0250668
0.0246748
0.0345571
4.23208
0.0225558
0.122842
0.0121904
0.0122765
0.0123767
0.0125095
0.0126619
0.0128325
0.013025
0.0132449
0.013488
0.0137569
0.0140554
0.0143857
0.0147519
0.0151612
0.0156197
0.0161324
0.0167058
0.0173442
0.0180518
0.0188331
0.0196944
0.0206485
0.0217185
0.022938
0.0243458
0.025969
0.0278134
0.0298759
0.0321697
0.0347174
0.0375227
0.0405404
0.0436741
0.0466788
0.0492082
0.0500361
0.0496859
0.0448564
0.0355445
0.0130278
0.0129474
0.0128687
0.0127957
0.012734
0.012683
0.0126446
0.0126236
0.0126212
0.012639
0.0126805
0.0127477
0.012843
0.0129695
0.0131297
0.0133264
0.0135627
0.0138387
0.0141571
0.0145203
0.0149245
0.0153609
0.0158306
0.0163517
0.0169685
0.0177342
0.0186678
0.0197245
0.0208247
0.0219258
0.0230314
0.024144
0.0252094
0.0260913
0.0263318
0.0245003
3.27638
0.0443474
0.0620879
0.0131192
0.0132135
0.0133213
0.0134619
0.0136206
0.0137956
0.0139922
0.0142131
0.0144539
0.0147168
0.0150055
0.0153216
0.0156698
0.0160576
0.0164907
0.0169759
0.0175207
0.0181306
0.0188117
0.0195707
0.0204168
0.0213634
0.0224327
0.0236535
0.0250595
0.0266778
0.028518
0.0305831
0.0328876
0.0354537
0.0382893
0.0413566
0.0445751
0.0477181
0.0504413
0.0514899
0.0512627
0.0466217
0.0374632
0.013987
0.0138967
0.0138064
0.0137216
0.0136472
0.013582
0.0135292
0.0134928
0.0134741
0.013475
0.0134985
0.0135467
0.0136221
0.0137278
0.0138666
0.0140411
0.014254
0.0145067
0.0148001
0.0151369
0.0155176
0.0159342
0.016389
0.0168988
0.0175
0.0182381
0.0191319
0.0201461
0.0212117
0.0222851
0.023364
0.0244419
0.025517
0.0264228
0.0278072
0.0253524
0.0355057
1.03623
0.0199711
0.0140883
0.014191
0.0143069
0.0144558
0.0146211
0.0148015
0.0150027
0.0152254
0.0154646
0.0157226
0.0160028
0.0163069
0.0166395
0.0170078
0.0174186
0.0178785
0.0183963
0.0189794
0.0196356
0.0203733
0.0212029
0.022139
0.0232042
0.0244265
0.0258337
0.02745
0.0292898
0.0313619
0.0336828
0.0362758
0.0391518
0.0422779
0.0455775
0.0488271
0.0516863
0.0529122
0.052818
0.0484734
0.0394417
0.0149885
0.0148879
0.0147856
0.0146887
0.014601
0.0145217
0.0144539
0.014402
0.0143669
0.0143506
0.0143563
0.0143859
0.0144418
0.014527
0.0146439
0.0147956
0.0149847
0.0152136
0.0154817
0.0157935
0.0161513
0.0165485
0.0169875
0.0174828
0.0180661
0.0187759
0.0196302
0.0206022
0.0216337
0.0226821
0.0237403
0.0247934
0.0258451
0.0267198
0.0279673
0.0278213
0.0259059
1.9276
0.0586897
0.0150999
0.015212
0.0153362
0.0154939
0.015666
0.0158528
0.0160595
0.0162847
0.0165233
0.0167776
0.0170508
0.0173442
0.0176628
0.0180143
0.0184047
0.0188424
0.0193359
0.0198941
0.0205263
0.0212427
0.0220557
0.0229808
0.0240408
0.0252608
0.0266665
0.0282802
0.03012
0.0321989
0.034536
0.0371562
0.0400744
0.0432651
0.0466621
0.050055
0.0531104
0.0545764
0.0546294
0.0505499
0.0415401
0.0160353
0.0159236
0.0158093
0.0156996
0.0155984
0.0155045
0.0154216
0.0153538
0.0153025
0.0152693
0.0152573
0.0152685
0.0153047
0.0153693
0.0154648
0.0155941
0.01576
0.0159651
0.0162088
0.0164952
0.0168286
0.0172049
0.0176257
0.0181039
0.0186667
0.0193475
0.0201631
0.0210933
0.0220898
0.0231126
0.0241509
0.0251893
0.0262151
0.0271434
0.0279393
0.0296801
0.0252506
0.913984
1.25148
0.0161569
0.0162787
0.0164122
0.0165789
0.0167583
0.0169526
0.0171655
0.0173937
0.0176326
0.0178844
0.0181518
0.0184366
0.0187435
0.0190799
0.0194527
0.0198699
0.0203415
0.0208765
0.0214862
0.0221818
0.0229774
0.0238906
0.024944
0.0261614
0.0275652
0.0291783
0.0310197
0.0331072
0.0354635
0.0381152
0.0410822
0.0443473
0.0478539
0.0514035
0.0546709
0.0564004
0.0566183
0.052808
0.0438176
0.0171299
0.0170068
0.0168802
0.0167569
0.016642
0.016533
0.0164346
0.0163508
0.0162829
0.0162325
0.0162028
0.0161952
0.0162122
0.0162567
0.016331
0.0164382
0.0165807
0.0167619
0.0169812
0.0172425
0.017551
0.0179058
0.0183069
0.0187656
0.0193059
0.0199569
0.020734
0.0216227
0.0225829
0.0235783
0.0245947
0.0256198
0.0266235
0.0276007
0.0282307
0.030097
0.0268558
0.0445122
0.797693
0.0172621
0.0173941
0.0175376
0.017714
0.0179011
0.0181038
0.0183237
0.0185559
0.0187961
0.0190466
0.0193097
0.0195872
0.019884
0.0202077
0.020565
0.0209644
0.0214162
0.0219303
0.0225189
0.0231951
0.0239737
0.0248731
0.0259172
0.0271312
0.0285355
0.0301486
0.0319925
0.03409
0.0364672
0.039154
0.0421756
0.0455252
0.0491578
0.0528917
0.056414
0.0584564
0.058865
0.0552812
0.0463029
0.0182752
0.0181407
0.0180006
0.0178638
0.0177342
0.0176099
0.0174953
0.0173954
0.0173106
0.0172429
0.0171954
0.0171696
0.0171674
0.017192
0.0172451
0.0173301
0.0174496
0.0176065
0.0178018
0.0180381
0.0183212
0.0186536
0.0190334
0.0194704
0.0199864
0.020607
0.0213462
0.0221936
0.0231168
0.0240831
0.025076
0.0260843
0.0270741
0.028053
0.0287583
0.0300189
0.0292475
0.0301635
0.122921
0.0184188
0.0185615
0.0187156
0.0189021
0.019098
0.0193097
0.0195375
0.0197743
0.020017
0.0202672
0.0205273
0.0207993
0.0210879
0.0214009
0.021745
0.0221288
0.022563
0.0230585
0.0236278
0.0242849
0.025047
0.025934
0.0269704
0.0281794
0.0295811
0.0311946
0.0330433
0.0351535
0.0375552
0.0402823
0.0433665
0.046813
0.0505898
0.0545368
0.0583558
0.0607617
0.0613936
0.0580033
0.0490211
0.0194745
0.019328
0.0191741
0.0190229
0.0188784
0.0187379
0.0186071
0.0184903
0.0183884
0.0183032
0.0182378
0.0181934
0.0181719
0.0181761
0.0182082
0.0182712
0.0183678
0.0185008
0.0186725
0.0188839
0.0191413
0.0194499
0.0198072
0.020221
0.0207113
0.0213006
0.0220021
0.0228087
0.0236943
0.0246299
0.0255984
0.0265871
0.0275683
0.028524
0.0293565
0.0301479
0.0310065
0.0293674
0.0439822
0.0196299
0.0197842
0.0199493
0.0201462
0.0203523
0.0205738
0.02081
0.0210529
0.021299
0.0215502
0.0218088
0.0220767
0.022359
0.022663
0.022996
0.0233665
0.0237854
0.024264
0.0248161
0.0254563
0.0262023
0.027076
0.0281035
0.029308
0.0307083
0.0323241
0.0341796
0.0363049
0.0387342
0.0415067
0.0446615
0.0482182
0.0521603
0.0563554
0.0605253
0.0633631
0.0642616
0.0610073
0.0519836
0.0207312
0.0205718
0.0204037
0.0202376
0.0200775
0.0199203
0.0197727
0.0196387
0.0195191
0.0194161
0.0193324
0.0192693
0.0192286
0.0192128
0.0192241
0.0192651
0.0193389
0.0194483
0.019596
0.0197818
0.0200133
0.0202971
0.0206306
0.02102
0.021483
0.0220405
0.0227045
0.0234708
0.0243183
0.0252221
0.026165
0.0271326
0.0281055
0.0290412
0.0299523
0.0305886
0.0318405
0.0307877
0.0338947
0.0208989
0.0210652
0.0212419
0.0214499
0.0216673
0.0218996
0.0221451
0.0223948
0.0226455
0.0228989
0.0231576
0.0234233
0.0237008
0.0239979
0.0243216
0.024681
0.0250872
0.0255511
0.0260873
0.0267118
0.0274438
0.0283051
0.029323
0.0305227
0.0319237
0.0335435
0.0354076
0.0375503
0.0400111
0.0428351
0.0460704
0.049753
0.0538855
0.0583707
0.0629564
0.0663101
0.0675317
0.0643511
0.0552249
0.0220486
0.0218759
0.0216926
0.0215112
0.0213346
0.0211602
0.0209952
0.0208434
0.0207058
0.0205845
0.0204825
0.0204005
0.0203403
0.0203045
0.0202947
0.020314
0.0203649
0.0204503
0.0205737
0.0207346
0.0209404
0.0211985
0.0215071
0.0218709
0.0223054
0.0228302
0.023457
0.0241831
0.0249922
0.0258631
0.0267791
0.0277251
0.0286865
0.0296138
0.0305508
0.0312263
0.0323199
0.0325184
0.0326506
0.0222289
0.0224084
0.0225973
0.022817
0.0230467
0.0232905
0.0235463
0.023804
0.0240605
0.0243178
0.0245776
0.0248424
0.0251171
0.0254094
0.0257263
0.0260765
0.0264717
0.0269234
0.0274462
0.0280568
0.0287752
0.0296254
0.0306357
0.0318318
0.0332329
0.0348573
0.0367326
0.0388963
0.0413936
0.0442765
0.0476034
0.0514287
0.0557809
0.060606
0.0656882
0.069668
0.0712815
0.0680913
0.0587714
0.0234304
0.0232436
0.0230447
0.0228471
0.0226533
0.0224612
0.0222778
0.0221078
0.0219516
0.0218117
0.0216907
0.0215895
0.0215096
0.0214535
0.0214228
0.0214202
0.0214484
0.0215102
0.0216092
0.0217454
0.0219252
0.0221566
0.0224394
0.0227765
0.0231816
0.0236734
0.0242629
0.0249492
0.0257196
0.0265566
0.0274446
0.0283688
0.0293163
0.0302425
0.0311814
0.031953
0.0328628
0.0338887
0.0335216
0.0236237
0.0238169
0.024019
0.0242513
0.0244942
0.0247505
0.0250178
0.0252845
0.0255481
0.0258104
0.0260734
0.026339
0.0266127
0.0269017
0.0272133
0.0275569
0.0279436
0.028385
0.0288965
0.0294954
0.0302021
0.0310421
0.0320454
0.0332384
0.0346413
0.0362721
0.0381621
0.0403509
0.0428898
0.0458387
0.0492688
0.0532563
0.0578617
0.0630851
0.0687645
0.0735163
0.075622
0.0723034
0.0626498
0.0248801
0.0246788
0.0244636
0.0242488
0.0240374
0.0238266
0.0236244
0.0234354
0.0232602
0.0231011
0.022961
0.0228402
0.0227405
0.0226639
0.0226119
0.0225874
0.0225927
0.0226308
0.0227053
0.0228166
0.0229702
0.023174
0.0234303
0.0237397
0.024115
0.0245734
0.0251259
0.0257725
0.0265044
0.0273066
0.0281656
0.0290671
0.0299998
0.0309267
0.0318662
0.0327219
0.0335731
0.0349247
0.0349339
0.0250876
0.0252946
0.0255107
0.0257566
0.0260135
0.0262834
0.0265632
0.0268405
0.0271126
0.0273816
0.0276488
0.0279168
0.0281909
0.028479
0.028788
0.0291268
0.0295069
0.0299403
0.0304426
0.0310315
0.0317282
0.0325594
0.0335568
0.0347486
0.0361554
0.0377968
0.039703
0.0419209
0.0445069
0.04753
0.0510763
0.0552476
0.0601427
0.0658323
0.0722349
0.0779555
0.0806894
0.0770913
0.0669043
0.0264019
0.0261854
0.0259533
0.0257202
0.0254905
0.0252603
0.0250385
0.0248299
0.0246349
0.0244562
0.0242962
0.0241555
0.0240356
0.0239382
0.0238651
0.0238183
0.0238007
0.0238151
0.0238647
0.0239513
0.0240783
0.0242546
0.024484
0.0247654
0.0251098
0.0255343
0.0260496
0.0266569
0.02735
0.0281172
0.0289464
0.0298246
0.030742
0.0316685
0.0326146
0.0335291
0.0344195
0.0358597
0.0363948
0.0266242
0.0268457
0.0270769
0.0273369
0.0276089
0.0278937
0.0281869
0.0284759
0.0287581
0.0290351
0.0293084
0.0295808
0.0298578
0.0301463
0.030454
0.0307905
0.0311664
0.0315941
0.0320892
0.0326705
0.0333596
0.0341842
0.0351773
0.036369
0.0377808
0.0394346
0.0413612
0.0436128
0.0462518
0.0493586
0.0530353
0.057413
0.062639
0.0688736
0.076158
0.0831196
0.0866833
0.0825665
0.0715624
0.0280003
0.0277675
0.0275176
0.0272658
0.0270167
0.0267663
0.0265241
0.0262954
0.0260798
0.0258808
0.0257004
0.0255394
0.0253987
0.0252805
0.0251858
0.0251167
0.025076
0.0250665
0.0250912
0.0251529
0.0252534
0.0254013
0.0256031
0.0258556
0.0261689
0.0265597
0.0270383
0.0276069
0.0282612
0.0289929
0.0297917
0.0306461
0.0315476
0.0324738
0.0334304
0.0343903
0.0353596
0.0368421
0.0378103
0.0282376
0.0284747
0.0287218
0.0289968
0.0292849
0.0295857
0.0298935
0.0301958
0.0304893
0.030776
0.031057
0.0313354
0.0316167
0.0319081
0.0322169
0.0325525
0.0329264
0.0333509
0.0338412
0.0344165
0.0350999
0.0359203
0.036912
0.0381065
0.0395267
0.0411944
0.0431457
0.0454351
0.0481336
0.0513334
0.0551544
0.0597624
0.0653657
0.0722358
0.0805965
0.0891804
0.0938817
0.0888857
0.0766674
0.0296795
0.0294298
0.029161
0.0288897
0.0286204
0.0283489
0.0280858
0.0278357
0.0275989
0.0273788
0.0271777
0.0269957
0.0268339
0.0266943
0.0265775
0.026486
0.0264222
0.0263885
0.0263884
0.0264247
0.0264986
0.0266183
0.0267915
0.0270149
0.027297
0.0276539
0.0280961
0.0286263
0.0292423
0.0299381
0.0307061
0.0315366
0.0324222
0.0333465
0.0343171
0.0353176
0.0363712
0.0379153
0.0392181
0.0299324
0.0301856
0.0304498
0.0307407
0.0310458
0.0313641
0.0316877
0.0320042
0.0323107
0.0326087
0.0328994
0.0331855
0.0334729
0.0337689
0.0340812
0.0344184
0.0347923
0.035215
0.035703
0.0362753
0.0369551
0.0377728
0.0387651
0.0399639
0.0413947
0.0430802
0.0450594
0.047392
0.0501571
0.0534585
0.057439
0.0623024
0.0683291
0.075935
0.0856135
0.0963656
0.102698
0.0962361
0.0822456
0.031444
0.0311768
0.030888
0.0305966
0.0303061
0.0300125
0.0297275
0.0294552
0.0291967
0.0289546
0.028732
0.0285284
0.0283454
0.0281838
0.028045
0.0279308
0.0278434
0.0277856
0.0277602
0.0277707
0.0278176
0.0279093
0.0280535
0.0282478
0.0284986
0.0288215
0.0292275
0.0297197
0.0302978
0.0309581
0.0316948
0.0325007
0.0333713
0.0342929
0.0352782
0.036319
0.0374539
0.0390794
0.0406591
0.0317136
0.0319834
0.0322654
0.0325733
0.0328965
0.033233
0.033574
0.0339063
0.0342272
0.0345384
0.0348404
0.0351364
0.0354321
0.0357345
0.0360515
0.0363924
0.0367684
0.0371923
0.03768
0.0382513
0.0389304
0.0397482
0.0407431
0.0419493
0.0433932
0.0450999
0.0471113
0.0494919
0.0523296
0.0557414
0.0598945
0.0650363
0.0715311
0.0799779
0.0912621
0.104975
0.113793
0.104855
0.0883188
0.0332991
0.0330132
0.0327039
0.0323911
0.0320786
0.0317622
0.0314541
0.031159
0.0308777
0.0306132
0.0303682
0.0301426
0.0299372
0.0297533
0.0295918
0.0294544
0.0293433
0.0292611
0.0292103
0.0291948
0.0292149
0.0292783
0.0293936
0.029558
0.0297778
0.0300674
0.0304377
0.0308924
0.0314329
0.0320579
0.0327636
0.0335447
0.0343994
0.0353198
0.0363189
0.0374027
0.0386154
0.0403322
0.0421577
0.0335862
0.0338731
0.0341736
0.0345
0.0348421
0.0351978
0.0355575
0.0359071
0.0362441
0.0365698
0.0368849
0.0371925
0.0374983
0.0378096
0.0381335
0.0384799
0.0388604
0.0392873
0.0397771
0.0403497
0.0410299
0.0418502
0.0428505
0.0440668
0.0455277
0.0472584
0.0493055
0.0517384
0.0546539
0.0581843
0.0625208
0.0679607
0.0749645
0.0843548
0.0975689
0.115397
0.128275
0.115001
0.0948765
0.03525
0.0349443
0.0346138
0.0342785
0.0339429
0.0336028
0.0332705
0.0329517
0.0326466
0.0323588
0.0320906
0.0318422
0.031614
0.0314074
0.0312228
0.0310621
0.0309268
0.0308196
0.0307433
0.0307017
0.0306948
0.0307301
0.0308161
0.0309508
0.0311396
0.0313961
0.0317311
0.0321493
0.0326531
0.033243
0.0339177
0.0346746
0.0355136
0.0364319
0.0374462
0.0385722
0.0398615
0.0416703
0.0437199
0.0355553
0.0358601
0.0361797
0.0365259
0.0368878
0.0372638
0.0376435
0.0380119
0.0383664
0.0387086
0.0390388
0.0393594
0.039677
0.0399991
0.0403322
0.0406866
0.0410733
0.0415051
0.0419989
0.0425753
0.0432592
0.0440847
0.045093
0.0463218
0.0478012
0.0495601
0.0516459
0.0541355
0.0571336
0.0607882
0.0653168
0.0710675
0.0786091
0.0890221
0.104488
0.128071
0.148227
0.126905
0.101856
0.0373019
0.0369758
0.0366228
0.0362644
0.0359046
0.0355395
0.0351823
0.0348386
0.0345087
0.0341967
0.0339047
0.0336326
0.0333811
0.0331511
0.0329429
0.032758
0.0325983
0.0324662
0.0323643
0.0322962
0.0322623
0.0322692
0.0323257
0.0324309
0.0325891
0.0328132
0.0331135
0.033496
0.0339638
0.0345194
0.0351635
0.035896
0.03672
0.0376365
0.0386661
0.0398327
0.0411984
0.0431011
0.0453521
0.0376263
0.03795
0.0382894
0.0386562
0.0390391
0.0394365
0.0398372
0.0402258
0.0405995
0.0409599
0.0413063
0.0416428
0.0419745
0.0423084
0.0426524
0.0430165
0.0434118
0.0438509
0.044351
0.0449332
0.0456232
0.0464554
0.0474742
0.0487189
0.0502199
0.0520089
0.0541364
0.0566851
0.0597689
0.0635502
0.0682738
0.0743371
0.0824233
0.0938932
0.11185
0.143321
0.178252
0.140557
0.10912
0.039461
0.0391134
0.0387371
0.0383543
0.0379694
0.0375782
0.037195
0.0368254
0.0364697
0.0361326
0.0358159
0.0355194
0.0352437
0.0349896
0.0347572
0.0345479
0.0343634
0.034206
0.034078
0.033983
0.033922
0.0339006
0.033928
0.0340039
0.034132
0.0343241
0.0345908
0.0349382
0.035371
0.0358931
0.0365073
0.0372161
0.0380249
0.0389402
0.0399849
0.0411929
0.0426317
0.0446252
0.0470605
0.0398052
0.0401483
0.0405086
0.0408969
0.0413017
0.0417215
0.0421445
0.0425546
0.0429489
0.043329
0.0436941
0.0440474
0.0443947
0.0447432
0.0451002
0.0454757
0.045881
0.0463292
0.0468378
0.0474274
0.0481251
0.048967
0.0499983
0.0512606
0.0527862
0.0546072
0.0567788
0.0593881
0.0625579
0.066464
0.0713767
0.0777428
0.0863502
0.0988341
0.119288
0.160662
0.231281
0.155231
0.11642
0.0417333
0.0413633
0.0409629
0.0405544
0.0401433
0.0397249
0.0393144
0.0389177
0.0385354
0.0381719
0.0378295
0.0375078
0.0372072
0.0369283
0.0366713
0.036437
0.0362272
0.0360437
0.0358892
0.0357675
0.0356795
0.03563
0.0356282
0.0356752
0.0357738
0.035935
0.0361688
0.0364824
0.0368812
0.0373707
0.0379558
0.0386414
0.0394359
0.0403497
0.0414101
0.042658
0.0441706
0.0462518
0.0488485
0.0420984
0.0424614
0.0428435
0.0432543
0.0436817
0.044125
0.0445714
0.045004
0.0454203
0.0458215
0.0462067
0.0465788
0.0469439
0.0473084
0.04768
0.0480691
0.0484859
0.0489448
0.0494635
0.0500629
0.050771
0.051624
0.0526694
0.0539509
0.055502
0.0573571
0.0595734
0.0622427
0.0654949
0.0695197
0.0746076
0.0812464
0.0903108
0.103654
0.126198
0.177176
0.371747
0.168696
0.123397
0.0441255
0.0437322
0.0433066
0.0428714
0.0424328
0.041986
0.041547
0.041122
0.0407117
0.0403206
0.0399517
0.0396039
0.0392774
0.038973
0.0386905
0.0384308
0.0381952
0.0379857
0.0378049
0.0376561
0.037541
0.0374633
0.0374325
0.0374513
0.0375208
0.0376514
0.0378536
0.0381347
0.0385009
0.038959
0.0395161
0.0401794
0.0409601
0.0418729
0.0429486
0.0442353
0.0458185
0.0479877
0.0507265
0.0445123
0.0448959
0.0453005
0.0457347
0.0461854
0.046653
0.0471236
0.0475802
0.0480197
0.0484434
0.0488506
0.0492429
0.0496266
0.0500092
0.0503972
0.0508005
0.0512313
0.051703
0.0522329
0.0528434
0.053562
0.0544279
0.05549
0.0567928
0.0583706
0.060259
0.062518
0.0652442
0.0685728
0.0727036
0.0779415
0.0848017
0.0942132
0.108139
0.13185
0.186712
0.535199
0.177325
0.129628
0.0466446
0.0462272
0.0457752
0.0453122
0.0448447
0.0443683
0.0438996
0.0434451
0.0430054
0.0425859
0.0421891
0.041814
0.0414609
0.0411303
0.0408217
0.0405359
0.0402739
0.0400379
0.0398302
0.0396541
0.0395119
0.0394063
0.0393471
0.0393379
0.0393792
0.0394806
0.0396524
0.0399022
0.0402371
0.0406652
0.0411955
0.0418376
0.0426052
0.0435174
0.0446081
0.0459331
0.0475827
0.0498355
0.0527011
0.0470539
0.047459
0.0478868
0.0483449
0.0488199
0.0493123
0.049808
0.0502895
0.0507531
0.0512006
0.0516306
0.0520448
0.0524496
0.0528511
0.0532565
0.0536761
0.0541221
0.0546069
0.0551494
0.0557725
0.0565038
0.0573835
0.0584615
0.0597855
0.0613903
0.0633116
0.0656109
0.0683879
0.0717819
0.0759971
0.0813486
0.0883582
0.0979627
0.11209
0.135666
0.18551
0.284619
0.178908
0.134737
0.0492978
0.0488555
0.0483762
0.047884
0.0473865
0.0468791
0.046379
0.0458934
0.0454231
0.0449742
0.0445485
0.044145
0.0437644
0.0434066
0.0430712
0.0427585
0.0424699
0.0422069
0.0419721
0.0417686
0.0415991
0.0414659
0.0413786
0.041342
0.041356
0.0414294
0.041572
0.0417919
0.0420971
0.0424968
0.0430017
0.0436237
0.0443792
0.0452911
0.0463971
0.0477576
0.0494718
0.0518028
0.0547791
0.0497308
0.050158
0.0506095
0.0510923
0.051592
0.0521097
0.0526314
0.0531381
0.0536269
0.054099
0.0545531
0.0549903
0.0554166
0.0558387
0.0562631
0.0567002
0.0571616
0.0576609
0.0582176
0.0588534
0.0595975
0.0604915
0.0615868
0.0629315
0.0645616
0.0665123
0.0688468
0.0716655
0.0751088
0.0793828
0.0847999
0.0918702
0.101484
0.115382
0.137537
0.177441
0.222554
0.175023
0.138525
0.0520934
0.0516252
0.0511172
0.0505949
0.0500659
0.0495258
0.048993
0.0484747
0.047973
0.0474928
0.0470367
0.0466038
0.0461945
0.0458088
0.0454456
0.0451055
0.0447897
0.0444996
0.0442372
0.0440062
0.0438096
0.0436489
0.0435343
0.0434708
0.0434582
0.0435047
0.0436197
0.0438113
0.0440885
0.0444617
0.0449428
0.045546
0.0462904
0.0472024
0.0483235
0.0497183
0.0514933
0.0538971
0.0569702
0.0525505
0.0530008
0.0534765
0.0539843
0.0545091
0.0550528
0.0556006
0.0561332
0.0566474
0.0571451
0.0576238
0.0580849
0.0585344
0.0589774
0.0594211
0.0598765
0.0603545
0.0608695
0.0614399
0.0620888
0.0628468
0.0637545
0.0648658
0.0662302
0.0678822
0.0698583
0.0722206
0.0750685
0.0785416
0.0828416
0.0882673
0.0952976
0.104728
0.11799
0.137838
0.167961
0.192785
0.168892
0.141038
0.0550398
0.0545446
0.0540069
0.0534532
0.052891
0.0523168
0.0517497
0.0511976
0.0506622
0.0501492
0.0496614
0.0491982
0.0487592
0.0483444
0.0479524
0.0475843
0.0472406
0.0469227
0.0466327
0.0463741
0.0461498
0.0459624
0.0458212
0.0457317
0.0456939
0.0457148
0.0458035
0.0459687
0.0462197
0.0465681
0.047027
0.047613
0.0483475
0.0492599
0.0503954
0.0518229
0.0536546
0.0561257
0.0592823
0.0555216
0.0559957
0.0564963
0.0570292
0.0575793
0.0581489
0.058723
0.0592814
0.0598215
0.0603453
0.0608492
0.0613346
0.0618072
0.0622722