/*--------------------------------*- C++ -*----------------------------------*\
| =========                 |                                                 |
| \\      /  F ield         | OpenFOAM: The Open Source CFD Toolbox           |
|  \\    /   O peration     | Version:  2312                                  |
|   \\  /    A nd           | Website:  www.openfoam.com                      |
|    \\/     M anipulation  |                                                 |
\*---------------------------------------------------------------------------*/
FoamFile
{
    version     2.0;
    format      ascii;
    arch        "LSB;label=32;scalar=64";
    class       volVectorField;
    location    "300";
    object      U;
}
// * * * * * * * * * * * * * * * * * * * * * * * * * * * * * * * * * * * * * //

dimensions      [0 1 -1 0 0 0 0];

internalField   nonuniform List<vector> 
10720
(
(0.22661 27.6515 1.44383e-17)
(1.96413 29.9477 -1.32845e-17)
(4.13722 32.1661 0)
(6.63516 33.8989 -4.01189e-16)
(9.39151 35.2289 4.47931e-16)
(12.338 36.1141 3.26642e-16)
(15.3197 36.4561 4.53473e-16)
(18.2408 36.2893 0)
(21.0162 35.6788 0)
(23.5631 34.6594 0)
(25.8445 33.3263 1.21312e-16)
(27.8137 31.7284 0)
(29.4238 29.8626 2.44562e-15)
(30.6582 27.7691 0)
(31.4742 25.4629 0)
(31.8436 22.9753 0)
(31.6961 20.3076 -4.43016e-15)
(30.9542 17.496 -6.86157e-15)
(29.4836 14.5529 6.4173e-15)
(27.1562 11.5428 0)
(23.8314 8.52996 6.38273e-15)
(19.5591 5.67489 -1.47674e-14)
(14.8812 3.22591 9.18361e-15)
(11.4326 1.43849 -3.36635e-16)
(10.0499 0.259017 0)
(10.6904 -0.360061 4.65862e-15)
(12.1125 -0.599737 6.00537e-17)
(13.6209 -0.719383 -1.40962e-15)
(14.8646 -0.870771 -4.56217e-15)
(15.688 -1.08611 -1.50885e-14)
(16.1218 -1.34643 6.28676e-15)
(16.2599 -1.61992 1.0851e-14)
(16.0597 -1.86576 8.84033e-15)
(15.5534 -2.06042 2.894e-14)
(14.7245 -2.17948 -1.12548e-14)
(13.5761 -2.20841 -7.77349e-17)
(11.7304 -2.06528 2.2482e-17)
(9.73121 -1.81427 2.81864e-15)
(3.62748 -1.08777 1.2545e-14)
(-1.14367 25.201 -7.27983e-19)
(-2.24982 22.4404 -1.33195e-17)
(-3.01559 19.3335 5.82018e-17)
(-3.31832 15.7371 -1.69055e-16)
(-2.99843 12.0221 -5.68061e-16)
(-2.02614 8.3242 1.01426e-15)
(-0.48909 4.95473 5.32485e-15)
(1.36214 2.19125 3.17739e-15)
(3.32025 -0.137018 0)
(5.55044 -2.15762 0)
(7.84631 -3.65988 2.11965e-15)
(9.96282 -4.62638 7.70852e-16)
(11.8335 -5.18516 -1.28266e-15)
(13.4702 -5.46082 1.05454e-15)
(14.8981 -5.55023 1.73944e-15)
(16.1481 -5.51641 1.12091e-15)
(17.251 -5.40699 1.42734e-15)
(18.239 -5.25089 9.46953e-16)
(19.1435 -5.06762 0)
(19.9862 -4.85994 0)
(20.7853 -4.62938 -1.30016e-15)
(21.5515 -4.36648 -5.90851e-17)
(22.2863 -4.05727 8.66601e-16)
(22.9587 -3.67671 -5.90219e-16)
(23.501 -3.22489 2.72628e-17)
(23.896 -2.74527 0)
(24.1741 -2.27755 7.74794e-17)
(24.3712 -1.77831 0)
(24.5028 -1.18106 0)
(24.5691 -0.513031 -9.59924e-18)
(24.5495 0.159837 0)
(24.4297 0.789573 1.17157e-16)
(24.2106 1.35355 1.61505e-16)
(23.9011 1.84536 4.57877e-16)
(23.501 2.26726 1.22986e-16)
(23.007 2.62717 -1.09402e-18)
(22.3167 2.92656 0)
(21.3665 3.1341 4.09377e-15)
(18.764 3.31159 7.81507e-15)
(7.15439 23.9962 -8.24545e-18)
(9.04508 25.7232 -2.5102e-19)
(11.3488 27.2873 0)
(14.0048 28.5837 0)
(16.8667 29.5529 -1.31596e-16)
(19.9394 30.1345 -3.1347e-16)
(23.1102 30.2821 0)
(26.2465 30.0169 0)
(29.2946 29.3487 6.71148e-16)
(32.1715 28.3294 0)
(34.821 27.0118 2.48091e-15)
(37.2364 25.4945 0)
(39.4263 23.8675 8.82688e-16)
(41.4025 22.1633 -8.66777e-16)
(43.152 20.4129 1.73714e-15)
(44.634 18.6547 -3.45082e-15)
(45.8298 16.9123 3.65771e-15)
(46.7021 15.2147 3.32377e-15)
(47.1901 13.5693 3.22846e-15)
(47.1809 11.9804 1.96081e-16)
(46.4805 10.3986 -3.35561e-15)
(44.8597 8.72528 3.29778e-15)
(42.1766 6.82241 -1.9846e-16)
(38.6368 4.75784 0)
(35.1041 2.86614 0)
(31.9514 1.34568 0)
(29.15 0.240166 1.94913e-16)
(26.7674 -0.55016 -4.26566e-17)
(24.9133 -1.15032 2.61696e-15)
(23.5625 -1.62194 2.67108e-17)
(22.5368 -1.99146 -1.98853e-17)
(21.6119 -2.27777 -7.64909e-17)
(20.6888 -2.50223 5.28812e-15)
(19.6834 -2.671 -8.45551e-15)
(18.5054 -2.76925 -4.35884e-17)
(17.1175 -2.77926 -8.94296e-15)
(15.148 -2.63236 0)
(13.0632 -2.36429 -6.76452e-16)
(7.02232 -1.46993 5.60065e-15)
(5.55917 22.1569 1.08692e-17)
(4.17382 20.1122 -4.96519e-17)
(2.95968 17.7184 -6.02753e-16)
(2.03875 14.9981 7.47102e-16)
(1.59059 12.0402 0)
(1.70399 8.98435 -1.63457e-15)
(2.40073 6.04269 -1.23117e-15)
(3.58565 3.44145 -9.54467e-15)
(5.07811 1.14421 2.76023e-15)
(6.84143 -0.756269 -1.99651e-15)
(8.73515 -2.12284 2.45946e-15)
(10.5844 -3.01106 -6.9006e-16)
(12.3075 -3.54891 0)
(13.8808 -3.83617 -4.51506e-16)
(15.2988 -3.95383 5.98175e-17)
(16.5729 -3.95417 -9.96641e-16)
(17.7197 -3.88161 0)
(18.7629 -3.76123 0)
(19.7266 -3.6109 -1.02474e-16)
(20.6337 -3.42785 9.87579e-17)
(21.4997 -3.20975 -1.15984e-15)
(22.3368 -2.93925 -1.24722e-16)
(23.1469 -2.59497 5.47082e-17)
(23.9075 -2.13656 5.9348e-16)
(24.5664 -1.57141 -4.04119e-16)
(25.0977 -0.963329 -2.86951e-16)
(25.5123 -0.336494 0)
(25.8043 0.273709 0)
(25.966 0.821238 0)
(25.9995 1.28858 9.64964e-18)
(25.934 1.68392 0)
(25.7962 2.03006 0)
(25.5963 2.34662 -2.37591e-16)
(25.3353 2.64213 -1.31328e-16)
(25.0041 2.92001 -1.00879e-16)
(24.6037 3.18319 4.74938e-16)
(24.0351 3.42881 -1.81232e-15)
(23.4723 3.64798 -3.20946e-15)
(21.4969 3.71643 -5.38432e-15)
(8.30369 22.1032 -1.74738e-18)
(9.64542 23.6289 9.28778e-18)
(11.278 25.1149 -8.43385e-18)
(13.1544 26.4888 -3.82122e-17)
(15.2221 27.632 -1.72471e-16)
(17.4803 28.5212 6.02953e-16)
(19.8547 29.1175 -4.22762e-16)
(22.2707 29.3833 -4.98696e-16)
(24.6712 29.3186 8.77519e-18)
(26.9984 28.9355 -6.57069e-16)
(29.1991 28.2538 6.14225e-16)
(31.2393 27.2985 -1.5996e-15)
(33.0918 26.0997 -7.61076e-16)
(34.7395 24.6901 0)
(36.1807 23.1039 -1.84706e-15)
(37.4747 21.3521 3.69256e-15)
(38.6518 19.4651 0)
(39.7319 17.4991 -6.94254e-15)
(40.7756 15.5037 -3.43261e-15)
(41.8284 13.5526 3.95358e-16)
(42.9514 11.6871 -3.8038e-16)
(44.0637 9.89519 -1.7298e-16)
(44.8755 8.03662 -2.4474e-15)
(44.9414 6.02737 1.27722e-15)
(44.1691 4.02987 0)
(42.8129 2.28436 1.2232e-15)
(41.0968 0.902471 -1.46164e-16)
(39.0719 -0.183208 0)
(36.695 -1.07331 1.92458e-15)
(34.0059 -1.80071 3.5577e-15)
(31.2151 -2.36354 -6.16972e-15)
(28.6093 -2.76897 -5.15616e-15)
(26.34 -3.03923 -1.02118e-16)
(24.3372 -3.19761 -6.74905e-15)
(22.4102 -3.25659 -5.15925e-15)
(20.43 -3.21326 6.98953e-15)
(18.0237 -3.02183 0)
(15.536 -2.65266 -4.56546e-16)
(9.73804 -1.88326 -7.7482e-15)
(7.20931 20.496 -1.62766e-17)
(6.24952 18.7413 -6.05798e-17)
(5.45194 16.676 2.41907e-16)
(4.81141 14.3655 0)
(4.48301 11.8845 4.62971e-16)
(4.51238 9.30237 0)
(4.92709 6.7563 3.512e-15)
(5.69641 4.4045 2.07043e-15)
(6.78221 2.29892 1.79792e-15)
(8.13685 0.509173 0)
(9.6344 -0.903933 -2.51808e-15)
(11.1543 -1.96158 -5.30976e-16)
(12.625 -2.72505 2.38492e-15)
(14.0111 -3.25239 0)
(15.2957 -3.59417 -1.09316e-15)
(16.4769 -3.7937 -3.28797e-16)
(17.561 -3.88897 1.34885e-15)
(18.5614 -3.90616 6.96512e-16)
(19.4954 -3.86348 1.89929e-16)
(20.3799 -3.76618 -1.03647e-16)
(21.2277 -3.61639 1.06241e-15)
(22.0475 -3.40589 0)
(22.8396 -3.12124 0)
(23.5845 -2.74204 2.651e-17)
(24.2392 -2.28333 0)
(24.7795 -1.79429 5.9822e-16)
(25.2154 -1.29708 -7.6153e-18)
(25.5606 -0.796672 -3.16108e-17)
(25.8205 -0.289556 0)
(25.9955 0.226108 -1.08582e-18)
(26.0876 0.750041 -8.72025e-18)
(26.0981 1.27188 0)
(26.0271 1.77346 1.05634e-16)
(25.8742 2.23918 0)
(25.63 2.6616 0)
(25.2946 3.0391 4.30912e-17)
(24.769 3.37341 -6.08645e-17)
(24.1685 3.62598 3.36139e-15)
(22.3689 3.72723 1.07667e-14)
(10.9051 20.2276 -1.30494e-17)
(12.1617 21.5225 -1.0702e-17)
(13.6686 22.7837 -2.0305e-19)
(15.4025 23.9368 -6.19401e-18)
(17.3172 24.8916 0)
(19.4188 25.6291 0)
(21.6515 26.1055 -7.01618e-16)
(23.9547 26.2858 8.47095e-16)
(26.2821 26.162 0)
(28.5786 25.7359 -1.03604e-15)
(30.793 25.0205 -1.32222e-15)
(32.886 24.0389 -1.24832e-15)
(34.8218 22.8256 1.49534e-15)
(36.5739 21.4175 1.41136e-15)
(38.1319 19.8476 0)
(39.4559 18.1677 2.2367e-15)
(40.5007 16.4359 7.65967e-16)
(41.2623 14.6888 6.17893e-15)
(41.7507 12.9634 3.73112e-16)
(42.0143 11.2944 -3.66962e-16)
(42.1515 9.70872 3.10179e-15)
(42.316 8.2004 -5.0434e-16)
(42.612 6.68552 2.78067e-15)
(42.8925 5.07575 1.17629e-15)
(42.8525 3.43725 -7.25688e-17)
(42.4026 1.95723 -1.09523e-15)
(41.7046 0.742768 7.97515e-18)
(40.9097 -0.253863 -8.05426e-18)
(40.0019 -1.12325 -1.77725e-15)
(38.8215 -1.89626 -4.64163e-17)
(37.1785 -2.55674 2.89702e-15)
(34.9688 -3.07723 -4.81765e-15)
(32.2951 -3.43982 -3.77285e-15)
(29.4554 -3.64613 -3.08014e-18)
(26.6815 -3.70872 4.56025e-15)
(24.0038 -3.63028 0)
(21.0735 -3.39188 3.24124e-15)
(18.0874 -2.9098 3.7112e-16)
(12.3187 -2.20181 3.10767e-15)
(9.84979 18.8728 -2.97962e-17)
(8.90289 17.4039 8.13278e-17)
(8.07646 15.6711 3.52287e-16)
(7.38504 13.714 0)
(6.95948 11.602 -4.08751e-16)
(6.83474 9.38344 0)
(7.03692 7.16207 -2.71538e-15)
(7.54034 5.06057 -1.18542e-16)
(8.32287 3.13655 1.28683e-15)
(9.35168 1.45449 1.12308e-15)
(10.5357 0.0676569 3.79387e-17)
(11.7906 -1.01816 1.86429e-15)
(13.0563 -1.83477 -1.19718e-15)
(14.2918 -2.42306 3.79323e-16)
(15.472 -2.82238 1.28677e-15)
(16.5848 -3.07183 1.41071e-15)
(17.6272 -3.20551 -1.259e-15)
(18.6035 -3.2505 7.60799e-18)
(19.5234 -3.22647 0)
(20.3984 -3.14288 1.298e-15)
(21.2378 -3.00293 6.30225e-17)
(22.0477 -2.80116 -9.65566e-16)
(22.8273 -2.52633 0)
(23.5602 -2.16091 2.66968e-17)
(24.2104 -1.71057 0)
(24.7542 -1.21283 -2.87604e-16)
(25.1963 -0.69073 0)
(25.5479 -0.155349 3.01698e-17)
(25.8138 0.382832 -8.04331e-19)
(25.9968 0.908773 4.00431e-19)
(26.1022 1.40666 8.4004e-18)
(26.1363 1.8608 1.79466e-19)
(26.1031 2.26802 0)
(26.0042 2.63143 3.08205e-17)
(25.8302 2.95776 1.10153e-18)
(25.5768 3.25133 -5.75159e-16)
(25.1455 3.52022 4.31882e-15)
(24.6134 3.69591 1.0774e-17)
(22.9841 3.75916 0)
(12.4357 18.8285 -1.81757e-17)
(13.4921 19.9778 -3.62276e-18)
(14.7662 21.1198 -2.05447e-19)
(16.2234 22.1923 1.26699e-16)
(17.8239 23.1126 -4.76293e-17)
(19.5882 23.8759 -1.84503e-16)
(21.4696 24.4428 3.00787e-16)
(23.4211 24.7778 0)
(25.4123 24.871 1.19553e-15)
(27.3965 24.7158 5.59046e-16)
(29.3325 24.3136 0)
(31.1858 23.6763 1.20201e-15)
(32.9219 22.8229 -6.38283e-16)
(34.5142 21.775 1.78086e-15)
(35.9417 20.5563 0)
(37.1841 19.1903 -2.97726e-15)
(38.2534 17.6729 2.79827e-15)
(39.1441 16.0268 -1.6517e-16)
(39.8488 14.2854 0)
(40.3606 12.4948 3.00469e-15)
(40.6858 10.6947 -3.01723e-15)
(40.8507 8.91579 -1.56302e-16)
(40.8981 7.14996 -2.39241e-15)
(40.8209 5.39136 -2.266e-15)
(40.5259 3.71154 0)
(39.9745 2.23113 0)
(39.2773 1.00755 -2.58081e-16)
(38.5815 -0.00812766 -2.85313e-17)
(37.9503 -0.895898 1.75377e-15)
(37.3631 -1.69046 -4.59963e-17)
(36.7543 -2.39491 4.56945e-17)
(35.9859 -3.00548 4.70021e-15)
(34.8221 -3.50434 0)
(33.0181 -3.85326 1.21019e-14)
(30.5257 -4.0166 -3.9524e-17)
(27.5885 -3.97641 0)
(24.2467 -3.73119 -1.64718e-17)
(20.7881 -3.16238 0)
(14.9249 -2.46997 -2.69025e-15)
(11.5427 17.6326 2.95269e-17)
(10.739 16.3492 -1.8595e-16)
(10.0172 14.8344 -4.40272e-17)
(9.38541 13.1268 8.20428e-16)
(8.95982 11.2905 -1.2952e-15)
(8.76514 9.35393 -1.69247e-15)
(8.83249 7.39268 2.05648e-15)
(9.1529 5.5065 -2.19028e-15)
(9.71692 3.75776 -9.71786e-16)
(10.5005 2.19871 -8.56036e-16)
(11.439 0.870123 1.6423e-15)
(12.4692 -0.214931 -1.56803e-15)
(13.5434 -1.07395 -6.83676e-16)
(14.6236 -1.73395 6.64774e-16)
(15.6823 -2.22073 -1.43747e-15)
(16.7035 -2.56393 2.64083e-16)
(17.6789 -2.78989 0)
(18.6066 -2.92085 -9.94656e-16)
(19.4907 -2.97347 3.51399e-16)
(20.3378 -2.95758 -1.36124e-15)
(21.1542 -2.87659 0)
(21.9436 -2.7273 8.40019e-16)
(22.7038 -2.5016 6.57932e-16)
(23.4204 -2.18868 -4.92395e-16)
(24.0626 -1.79462 0)
(24.6074 -1.35129 -3.16073e-16)
(25.0553 -0.883911 0)
(25.415 -0.405262 0)
(25.6906 0.075287 0)
(25.8841 0.547617 2.41578e-17)
(25.9991 1.00352 0)
(26.041 1.44298 0)
(26.0138 1.86609 -1.52016e-17)
(25.9209 2.26931 -3.1027e-17)
(25.7567 2.64943 0)
(25.5234 3.00236 -6.75103e-16)
(25.1348 3.32871 8.45622e-17)
(24.6763 3.54883 0)
(23.3006 3.66082 -5.39218e-15)
(13.9268 17.5944 2.22955e-17)
(14.8868 18.6114 -1.58299e-17)
(16.04 19.6279 0)
(17.3543 20.5851 8.92461e-18)
(18.7912 21.4099 -1.12392e-16)
(20.3803 22.1028 1.7336e-16)
(22.0813 22.6255 4.66105e-17)
(23.8565 22.946 -7.5042e-16)
(25.6851 23.0509 -9.49078e-17)
(27.5289 22.9292 1.14132e-15)
(29.3527 22.5765 -4.07788e-16)
(31.1266 21.9961 9.25396e-16)
(32.8174 21.1984 4.64926e-16)
(34.397 20.1981 3.34577e-16)
(35.8409 19.0138 0)
(37.1297 17.6669 -6.44692e-16)
(38.2362 16.1976 -1.41292e-15)
(39.1329 14.6564 -5.1834e-15)
(39.8097 13.0834 1.52851e-15)
(40.274 11.5079 -1.9311e-15)
(40.5436 9.95014 -3.01278e-16)
(40.6437 8.40758 0)
(40.5838 6.84879 2.15123e-15)
(40.3365 5.25486 1.39383e-16)
(39.8555 3.68878 -6.48771e-17)
(39.1423 2.27016 -9.25957e-16)
(38.2877 1.07394 2.1498e-16)
(37.4069 0.077645 4.48595e-16)
(36.5594 -0.784345 -1.67462e-15)
(35.7555 -1.54836 -8.90455e-17)
(35.0034 -2.22233 2.83831e-15)
(34.3272 -2.81072 4.55696e-15)
(33.7109 -3.31797 0)
(33.0204 -3.73777 -1.92341e-17)
(31.9187 -4.03451 -4.5789e-15)
(30.0284 -4.13099 0)
(27.0863 -3.9698 -5.9069e-15)
(23.5158 -3.38287 0)
(17.5859 -2.71585 2.41897e-15)
(13.1069 16.5398 -2.94326e-17)
(12.3655 15.4149 7.5431e-17)
(11.6859 14.0835 -1.87342e-16)
(11.0776 12.5789 0)
(10.6432 10.9621 5.50396e-16)
(10.3989 9.25139 2.76825e-15)
(10.3721 7.50248 0)
(10.5638 5.80214 -1.57092e-15)
(10.9686 4.21261 -1.49469e-15)
(11.5662 2.77293 1.49324e-15)
(12.3105 1.51609 -5.94385e-17)
(13.1545 0.459195 6.46915e-16)
(14.0617 -0.406194 3.37021e-17)
(14.9999 -1.09667 1.69889e-15)
(15.9433 -1.62802 1.51973e-15)
(16.8746 -2.02151 -1.42463e-15)
(17.7826 -2.2971 2.00028e-16)
(18.6611 -2.47304 -3.72068e-16)
(19.5093 -2.56402 1.7233e-16)
(20.3295 -2.57994 9.99235e-16)
(21.1245 -2.52533 1.29363e-16)
(21.8952 -2.39934 -9.28487e-17)
(22.6384 -2.1963 -5.58437e-16)
(23.3404 -1.90875 0)
(23.9749 -1.5411 2.25981e-17)
(24.5196 -1.11869 5.91536e-16)
(24.9719 -0.664875 -2.96173e-18)
(25.3376 -0.192096 2.96538e-18)
(25.6202 0.290663 0)
(25.8212 0.772888 -2.2821e-17)
(25.9437 1.24524 0)
(25.9928 1.69799 0)
(25.9723 2.12122 1.34981e-17)
(25.8852 2.50891 9.83295e-17)
(25.7257 2.8595 0)
(25.4943 3.16964 6.40909e-16)
(25.1118 3.44501 -4.50017e-15)
(24.6504 3.59188 2.18634e-17)
(23.4315 3.62861 5.15519e-15)
(15.126 16.5511 4.02413e-19)
(15.988 17.4644 -1.50516e-17)
(17.0231 18.3847 5.84883e-18)
(18.1976 19.2576 -5.67849e-18)
(19.4729 20.0175 7.69961e-17)
(20.8842 20.671 0)
(22.3948 21.1848 -3.33312e-16)
(23.9725 21.5296 6.58445e-18)
(25.6049 21.6944 -3.4133e-16)
(27.2595 21.6673 -6.9173e-16)
(28.9078 21.4413 0)
(30.5256 21.0161 -1.67973e-15)
(32.0825 20.3965 -1.4465e-15)
(33.5518 19.5922 -3.5277e-15)
(34.9096 18.6171 0)
(36.1318 17.4908 -2.1939e-15)
(37.1988 16.2337 -2.30329e-15)
(38.1026 14.8558 2.44975e-15)
(38.8344 13.3796 -2.40474e-15)
(39.3904 11.8379 2.22931e-15)
(39.775 10.2626 2.75189e-16)
(39.9961 8.67838 -2.36612e-15)
(40.0512 7.08644 0)
(39.9036 5.48754 -2.10211e-15)
(39.5042 3.93422 1.26348e-16)
(38.8551 2.52227 9.64851e-16)
(38.0345 1.31669 0)
(37.1424 0.303476 -3.29367e-17)
(36.2296 -0.572864 7.11947e-17)
(35.2984 -1.34536 2.74342e-15)
(34.3494 -2.02045 -2.54367e-15)
(33.4091 -2.60157 -4.40618e-15)
(32.5201 -3.0941 3.71503e-15)
(31.7371 -3.50222 -6.43268e-17)
(31.0462 -3.82279 4.70676e-15)
(30.2533 -4.0203 6.0857e-15)
(28.6145 -4.00953 3.08175e-15)
(25.8281 -3.5118 -8.02825e-18)
(20.1996 -2.9272 -2.98476e-18)
(14.3841 15.6063 1.18777e-17)
(13.7101 14.605 1.45387e-16)
(13.0799 13.4177 1.95928e-16)
(12.503 12.0748 -3.73275e-16)
(12.0717 10.6346 -1.48442e-15)
(11.7984 9.10716 4.94111e-16)
(11.7077 7.53383 1.2575e-15)
(11.8071 5.99329 3.17844e-15)
(12.0937 4.54575 1.27385e-15)
(12.5499 3.21926 -1.19124e-15)
(13.1417 2.04087 -3.87737e-17)
(13.8333 1.02794 -5.72696e-16)
(14.5969 0.175766 0)
(15.4067 -0.526105 -2.71249e-17)
(16.2398 -1.08704 -9.30456e-16)
(17.0801 -1.52203 4.05723e-16)
(17.9156 -1.84547 -3.98502e-16)
(18.7374 -2.07103 0)
(19.5416 -2.21029 6.02901e-16)
(20.327 -2.27175 -1.05029e-15)
(21.0935 -2.25948 0)
(21.8399 -2.1734 7.68317e-16)
(22.5617 -2.00958 0)
(23.2461 -1.76333 -2.86784e-17)
(23.8699 -1.43888 2.86179e-17)
(24.412 -1.05712 -2.89756e-16)
(24.8667 -0.639979 -5.3724e-18)
(25.2378 -0.200913 -3.06219e-18)
(25.5277 0.24992 6.751e-19)
(25.7375 0.701322 -3.6874e-17)
(25.8698 1.14251 -4.34765e-17)
(25.929 1.56549 5.30092e-17)
(25.9185 1.96674 1.21437e-18)
(25.8408 2.34271 3.26112e-17)
(25.6898 2.69192 0)
(25.465 3.0099 1.37756e-17)
(25.0924 3.2979 2.10843e-15)
(24.6328 3.46049 -1.27917e-17)
(23.5062 3.50365 4.79455e-15)
(16.1811 15.6322 4.47187e-18)
(16.9714 16.4561 2.27599e-17)
(17.9188 17.29 0)
(18.9898 18.0826 -2.57867e-17)
(20.146 18.7747 2.55059e-17)
(21.4251 19.3765 0)
(22.794 19.8571 -1.23051e-16)
(24.2249 20.1907 9.7102e-16)
(25.7108 20.3669 -1.35113e-15)
(27.225 20.3733 4.30882e-16)
(28.7442 20.2011 5.88814e-16)
(30.2492 19.8463 2.13338e-15)
(31.7137 19.309 1.53049e-15)
(33.1135 18.5929 1.82906e-15)
(34.4253 17.7063 4.8464e-16)
(35.6252 16.6619 1.60807e-15)
(36.6933 15.4756 2.21478e-15)
(37.6078 14.1765 2.10154e-15)
(38.351 12.7996 -1.54168e-15)
(38.9173 11.3738 -4.7098e-15)
(39.3107 9.92245 0)
(39.5413 8.45805 8.67456e-17)
(39.6125 6.97859 1.8671e-15)
(39.5015 5.48422 2.00142e-15)
(39.1673 4.01693 -1.15606e-16)
(38.6025 2.65902 -8.59208e-16)
(37.8651 1.47461 6.17525e-18)
(37.0389 0.463198 -4.3991e-16)
(36.17 -0.417002 4.65646e-17)
(35.2587 -1.19383 -5.10001e-15)
(34.295 -1.87184 -9.10736e-18)
(33.2816 -2.45147 -6.92188e-17)
(32.2307 -2.93502 -3.56775e-15)
(31.1783 -3.32397 -6.36705e-17)
(30.1776 -3.61573 -4.52567e-15)
(29.3646 -3.79875 -1.23151e-14)
(28.513 -3.85104 3.18499e-15)
(27.103 -3.48984 4.02606e-16)
(22.46 -3.06461 2.14497e-15)
(15.4961 14.7816 -5.27661e-17)
(14.8721 13.8836 -1.96788e-16)
(14.2798 12.8167 -1.42035e-16)
(13.729 11.608 -3.62621e-16)
(13.3032 10.3142 8.23791e-16)
(13.0115 8.93832 -5.93905e-17)
(12.8768 7.51257 -3.11143e-15)
(12.9092 6.11044 -1.07961e-15)
(13.1067 4.78831 1.70351e-17)
(13.4545 3.56586 0)
(13.926 2.46606 -1.00816e-15)
(14.4932 1.50518 9.40862e-16)
(15.135 0.679856 -9.06643e-16)
(15.831 -0.0168221 -4.64563e-16)
(16.5624 -0.589846 3.87911e-16)
(17.3152 -1.0495 3.85989e-16)
(18.0778 -1.40523 1.38504e-15)
(18.8405 -1.66639 -3.28217e-16)
(19.5975 -1.84147 -5.59135e-16)
(20.3451 -1.93726 0)
(21.0807 -1.95715 -8.51135e-16)
(21.8012 -1.90154 -6.33149e-16)
(22.5009 -1.76772 -1.33148e-17)
(23.1674 -1.55293 -6.84109e-17)
(23.7796 -1.2611 -2.20215e-17)
(24.3174 -0.908986 3.36674e-16)
(24.7732 -0.516609 -6.27089e-18)
(25.1484 -0.0975758 5.01748e-17)
(25.4443 0.337789 8.44691e-18)
(25.6614 0.778527 3.34509e-17)
(25.8016 1.21414 -1.2745e-17)
(25.8687 1.63643 -1.27853e-16)
(25.8656 2.03738 -1.2225e-16)
(25.7946 2.41081 -1.17739e-16)
(25.6498 2.75331 -6.98819e-18)
(25.4307 3.05753 4.24209e-18)
(25.0681 3.32344 -2.15655e-15)
(24.6191 3.44639 -3.21554e-15)
(23.5724 3.4346 -4.41543e-15)
(17.092 14.8204 -1.37215e-17)
(17.8199 15.5685 -8.51627e-18)
(18.6915 16.3286 -2.12292e-17)
(19.6728 17.0528 6.65065e-18)
(20.726 17.6866 4.94019e-17)
(21.8896 18.2434 -1.3976e-16)
(23.1331 18.6954 4.62344e-16)
(24.4315 19.0193 0)
(25.782 19.2074 4.10944e-16)
(27.1616 19.2476 1.23233e-17)
(28.5515 19.131 -5.04025e-16)
(29.9369 18.8527 -1.96226e-15)
(31.2952 18.4103 -7.98431e-16)
(32.6048 17.8045 0)
(33.8443 17.0402 0)
(34.9909 16.1266 0)
(36.0229 15.0786 0)
(36.922 13.9126 -2.04604e-15)
(37.6744 12.6462 2.01583e-15)
(38.2704 11.3026 1.97255e-15)
(38.7068 9.90676 -1.59114e-15)
(38.9844 8.47994 1.4019e-15)
(39.1006 7.03399 -1.46302e-15)
(39.037 5.58047 -1.08021e-16)
(38.7636 4.15692 -5.04918e-17)
(38.2741 2.82964 8.64973e-16)
(37.6149 1.65496 1.86984e-16)
(36.8583 0.639351 0)
(36.0495 -0.248945 0)
(35.1934 -1.03434 4.17526e-17)
(34.2814 -1.72139 0)
(33.3097 -2.30953 3.76938e-15)
(32.274 -2.79912 -3.34432e-15)
(31.1734 -3.18767 -5.37061e-15)
(30.0029 -3.46815 8.43681e-15)
(28.862 -3.62217 5.96454e-15)
(27.8198 -3.6414 -3.17861e-15)
(27.2425 -3.33392 -8.56043e-16)
(23.9955 -3.0868 -2.1626e-15)
(16.4572 14.0489 0)
(15.8771 13.2373 5.49636e-17)
(15.3192 12.2712 2.69559e-16)
(14.7933 11.1753 -1.1662e-15)
(14.3765 10.0043 1.02932e-15)
(14.0739 8.75595 -8.27106e-16)
(13.9088 7.45593 9.65998e-18)
(13.8921 6.17428 8.16547e-16)
(14.0218 4.9627 8.63374e-16)
(14.2857 3.83533 0)
(14.662 2.81152 4.14823e-16)
(15.1278 1.90619 -1.26824e-15)
(15.6671 1.11606 2.00957e-15)
(16.2639 0.435936 3.65875e-16)
(16.903 -0.137007 -7.44791e-16)
(17.5732 -0.609632 -6.93462e-16)
(18.264 -0.987864 -6.37295e-16)
(18.9662 -1.27761 0)
(19.673 -1.48445 0)
(20.3792 -1.61308 0)
(21.0803 -1.66591 7.93884e-16)
(21.7718 -1.64315 0)
(22.4468 -1.54275 -5.11756e-16)
(23.0933 -1.36318 -6.55291e-17)
(23.6919 -1.10798 -3.91347e-16)
(24.2233 -0.790964 -2.95708e-16)
(24.6785 -0.430124 0)
(25.0565 -0.0391581 -4.13613e-17)
(25.3577 0.371242 -8.89715e-18)
(25.5819 0.789937 1.65001e-18)
(25.7305 1.20604 1.14115e-16)
(25.8064 1.61029 -2.16896e-17)
(25.8123 1.99633 1.17428e-16)
(25.7499 2.35833 -1.72948e-16)
(25.6133 2.6927 0)
(25.4016 2.99145 -1.34991e-17)
(25.05 3.25224 -5.14538e-17)
(24.6133 3.37051 3.04556e-15)
(23.6439 3.34507 -2.59251e-17)
(17.8938 14.093 1.59705e-17)
(18.5698 14.7751 0)
(19.378 15.47 6.01884e-17)
(20.2848 16.1326 -2.51882e-17)
(21.2527 16.7127 -3.07036e-17)
(22.3206 17.2255 1.30755e-16)
(23.4597 17.6455 -2.03307e-16)
(24.6473 17.9525 -2.47378e-16)
(25.8834 18.1398 0)
(27.1482 18.1965 -4.34355e-16)
(28.4267 18.1139 -4.6653e-16)
(29.7077 17.8862 4.63439e-16)
(30.9718 17.5091 1.7358e-15)
(32.2011 16.9806 6.97827e-16)
(33.3762 16.3021 -2.11836e-15)
(34.4754 15.4791 -1.53266e-15)
(35.4782 14.5215 1.21288e-15)
(36.3657 13.4427 8.96997e-16)
(37.1199 12.2647 -4.40619e-16)
(37.7274 11.0108 4.41399e-16)
(38.1823 9.70282 1.11909e-15)
(38.4826 8.35842 2.08401e-16)
(38.6243 6.98943 -1.99596e-16)
(38.5928 5.60899 -1.33951e-15)
(38.3649 4.24976 0)
(37.9345 2.96751 -7.24517e-16)
(37.3378 1.81438 -3.48778e-16)
(36.6364 0.803964 -3.21998e-16)
(35.874 -0.0856354 -1.19213e-15)
(35.0605 -0.874755 4.47095e-15)
(34.1924 -1.56748 1.84348e-15)
(33.2687 -2.16284 5.88292e-18)
(32.2857 -2.66046 4.11535e-17)
(31.2361 -3.05655 0)
(30.0887 -3.34125 -3.94619e-15)
(28.8626 -3.49001 0)
(27.4809 -3.48172 0)
(26.8422 -3.1349 4.42114e-16)
(24.7108 -2.99253 4.38126e-18)
(17.3011 13.3898 -5.38694e-17)
(16.7582 12.6522 1.82813e-16)
(16.2303 11.7725 1.22593e-17)
(15.7273 10.7731 2.58805e-16)
(15.3207 9.70666 -9.34622e-16)
(15.0128 8.5671 6.88064e-16)
(14.8265 7.37568 3.5376e-17)
(14.7734 6.19958 -6.76331e-16)
(14.8513 5.08571 -6.6338e-16)
(15.0496 4.04439 -7.07311e-16)
(15.35 3.09241 -1.40458e-15)
(15.7334 2.24312 0)
(16.1868 1.49268 -7.22247e-16)
(16.6978 0.836539 -2.55851e-17)
(17.2544 0.273219 0)
(17.848 -0.202288 -6.09151e-16)
(18.47 -0.593221 -2.90587e-16)
(19.112 -0.902886 -2.73796e-16)
(19.7672 -1.13438 9.45458e-16)
(20.4298 -1.29028 8.45055e-16)
(21.0941 -1.37159 -8.76634e-17)
(21.7544 -1.37812 6.55454e-16)
(22.4031 -1.30806 1.29569e-16)
(23.0284 -1.1604 -6.26312e-17)
(23.6119 -0.938368 3.46329e-16)
(24.1351 -0.653286 2.11989e-17)
(24.5878 -0.320975 0)
(24.9673 0.0452226 0)
(25.2726 0.43447 -1.74582e-18)
(25.5031 0.835741 4.24722e-18)
(25.6591 1.23805 -1.33581e-16)
(25.7431 1.6321 -2.10681e-17)
(25.7571 2.01007 1.88527e-16)
(25.7025 2.36476 1.63618e-16)
(25.5736 2.69139 9.17419e-18)
(25.3692 2.98003 4.36144e-18)
(25.0295 3.2262 3.99422e-15)
(24.6067 3.32271 -2.90311e-15)
(23.715 3.26741 2.40716e-17)
(18.602 13.4361 6.12738e-18)
(19.2329 14.0606 0)
(19.9863 14.6979 -3.56935e-17)
(20.8287 15.3059 0)
(21.723 15.838 -7.25804e-17)
(22.7081 16.3103 7.02506e-17)
(23.7564 16.7 1.53754e-16)
(24.8472 16.989 2.32694e-16)
(25.9821 17.1721 0)
(27.1439 17.2396 -2.86765e-16)
(28.3204 17.1837 4.76881e-16)
(29.5036 16.9982 -9.79815e-16)
(30.677 16.6784 -5.49125e-16)
(31.8254 16.2206 -5.59907e-16)
(32.9319 15.6243 1.34656e-15)
(33.9768 14.8921 1.46059e-15)
(34.9404 14.0309 -1.57067e-15)
(35.804 13.0519 -1.57162e-15)
(36.5505 11.9692 0)
(37.1654 10.801 4.05456e-16)
(37.639 9.5669 -7.8486e-16)
(37.9654 8.28624 1.91816e-16)
(38.1376 6.97566 2.59186e-18)
(38.1424 5.65281 3.15927e-15)
(37.9611 4.34754 -1.7504e-16)
(37.5881 3.10585 1.09624e-16)
(37.0511 1.974 3.21137e-16)
(36.402 0.969859 3.40399e-16)
(35.6813 0.0798167 1.02207e-15)
(34.9025 -0.712155 -2.0499e-15)
(34.0661 -1.40937 -1.68324e-15)
(33.1741 -2.01035 -6.60056e-15)
(32.2272 -2.51424 5.67278e-15)
(31.2234 -2.91706 -8.0333e-17)
(30.135 -3.20887 3.65894e-15)
(28.9729 -3.36198 -1.11742e-16)
(27.529 -3.35935 6.11308e-17)
(26.5208 -2.96218 4.15873e-18)
(24.8908 -2.82186 -1.90318e-15)
(18.0462 12.7926 2.65012e-17)
(17.5362 12.1187 -9.39695e-17)
(17.0352 11.3139 1.84985e-16)
(16.5534 10.3979 0)
(16.1578 9.42194 5.43419e-16)
(15.8487 8.37625 0)
(15.6479 7.27986 0)
(15.5677 6.1967 0)
(15.6057 5.16955 1.22625e-15)
(15.7526 4.20605 -6.05796e-16)
(15.9922 3.32103 6.85043e-16)
(16.3081 2.52653 0)
(16.6897 1.81791 0)
(17.1271 1.19053 -6.20229e-16)
(17.6108 0.643511 0)
(18.1346 0.173011 5.64386e-16)
(18.6916 -0.222881 1.29703e-17)
(19.2749 -0.54539 0)
(19.8784 -0.795545 -6.71996e-16)
(20.4959 -0.974203 -9.95855e-16)
(21.1215 -1.08112 -6.93544e-16)
(21.7485 -1.1153 -6.03451e-16)
(22.3691 -1.07472 1.03407e-15)
(22.9716 -0.958516 0)
(23.5383 -0.769522 3.46679e-16)
(24.0515 -0.516893 3.20289e-16)
(24.5 -0.214491 1.19498e-16)
(24.8795 0.124898 0)
(25.188 0.490389 -8.83104e-18)
(25.4239 0.87099 -5.26414e-17)
(25.5871 1.25568 1.46101e-16)
(25.6792 1.63464 -2.01617e-17)
(25.7015 2.00003 -1.7043e-16)
(25.6552 2.34441 2.03847e-16)
(25.5346 2.66236 -2.39702e-18)
(25.3382 2.94281 9.17343e-18)
(25.0112 3.17905 -3.87279e-15)
(24.6026 3.2643 2.68816e-15)
(23.785 3.1911 6.78812e-15)
(19.2324 12.8384 2.85077e-18)
(19.824 13.412 -1.79522e-17)
(20.5294 13.998 0)
(21.3159 14.5567 -1.50893e-17)
(22.1467 15.0451 0)
(23.0602 15.4797 0)
(24.0299 15.84 1.95684e-17)
(25.0365 16.1095 2.01937e-16)
(26.0829 16.2845 4.68211e-16)
(27.1539 16.3563 1.20003e-15)
(28.2395 16.3181 6.80856e-16)
(29.3341 16.164 7.8787e-16)
(30.424 15.8887 0)
(31.4966 15.4876 1.54112e-15)
(32.5372 14.9584 -5.46927e-16)
(33.5283 14.3015 0)
(34.4516 13.521 1.30861e-15)
(35.289 12.6248 1.49911e-15)
(36.0233 11.6247 0)
(36.6386 10.5373 1.43744e-15)
(37.1224 9.38074 -1.40754e-15)
(37.4664 8.17281 0)
(37.6624 6.93049 -1.69327e-16)
(37.6983 5.67259 2.88514e-17)
(37.5592 4.42614 8.19719e-17)
(37.2393 3.22961 1.24561e-15)
(36.7593 2.1242 -4.5278e-18)
(36.1617 1.13106 -3.33166e-17)
(35.4832 0.24411 -2.78675e-17)
(34.739 -0.548305 6.18822e-17)
(33.932 -1.24823 1.68259e-15)
(33.0657 -1.85333 5.92491e-15)
(32.1426 -2.36197 4.8031e-17)
(31.165 -2.76954 -4.27361e-15)
(30.1129 -3.06688 -3.29722e-15)
(29.011 -3.2231 -4.78124e-15)
(27.669 -3.23576 -2.70256e-15)
(26.4507 -2.82436 1.97978e-17)
(24.9086 -2.6257 1.80985e-15)
(18.709 12.2473 -6.03257e-17)
(18.228 11.6294 -2.2468e-16)
(17.7514 10.89 4.45197e-16)
(17.2895 10.0473 0)
(16.9053 9.15008 8.74071e-16)
(16.5978 8.18656 0)
(16.3874 7.17401 -4.79498e-16)
(16.287 6.17323 1.92389e-15)
(16.2942 5.22332 -1.48827e-15)
(16.4002 4.33038 0)
(16.5909 3.50736 1.10514e-15)
(16.8516 2.76516 1.06967e-15)
(17.1732 2.09854 0)
(17.5476 1.50272 -1.05689e-15)
(17.9674 0.976778 2.55937e-16)
(18.4282 0.517131 -2.5632e-16)
(18.9249 0.122795 2.49746e-16)
(19.4521 -0.206174 4.38937e-16)
(20.0045 -0.469315 -1.6312e-17)
(20.5765 -0.665964 5.32319e-16)
(21.162 -0.794628 1.57548e-16)
(21.7543 -0.853479 -1.5123e-16)
(22.3454 -0.840129 -4.87825e-16)
(22.9237 -0.753451 4.19952e-16)
(23.4721 -0.595621 -3.05378e-16)
(23.9734 -0.374075 -3.2219e-16)
(24.4159 -0.100718 -1.12608e-16)
(24.794 0.21246 -1.2552e-18)
(25.1045 0.554707 9.61014e-18)
(25.345 0.915245 4.977e-17)
(25.5147 1.28309 1.05018e-17)
(25.6142 1.64823 -1.93401e-17)
(25.6446 2.0023 2.35724e-16)
(25.6065 2.33697 -2.06193e-16)
(25.4942 2.64586 9.58666e-18)
(25.3062 2.91647 -7.20422e-16)
(24.9928 3.14007 1.86243e-15)
(24.6 3.21099 0)
(23.8532 3.11914 -6.43663e-15)
(19.7963 12.2912 1.00469e-17)
(20.353 12.8194 0)
(21.0161 13.3595 0)
(21.7532 13.8738 6.8191e-18)
(22.5281 14.3225 -2.03598e-17)
(23.3786 14.7225 0)
(24.2792 15.0547 0)
(25.2115 15.3047 -6.59152e-16)
(26.1796 15.4698 -3.35146e-17)
(27.1696 15.5424 -4.0837e-17)
(28.1733 15.5165 -1.57251e-15)
(29.187 15.3867 -4.12464e-16)
(30.1992 15.1478 7.87412e-16)
(31.1996 14.7948 -6.7216e-17)
(32.1758 14.3242 0)
(33.1123 13.7351 0)
(33.9925 13.0291 -3.57961e-15)
(34.7991 12.2118 -6.61865e-16)
(35.5155 11.2921 6.71198e-16)
(36.1255 10.2829 -1.39285e-15)
(36.6149 9.19992 2.65109e-15)
(36.9733 8.0605 1.26017e-15)
(37.1908 6.8825 -1.22659e-15)
(37.2559 5.686 -1.39855e-15)
(37.1562 4.49599 2.23193e-16)
(36.886 3.34449 -1.21875e-15)
(36.4604 2.26768 -1.38345e-16)
(35.9138 1.2886 3.07704e-17)
(35.2786 0.407281 -3.0954e-17)
(34.5708 -0.383597 1.03484e-16)
(33.7952 -1.08474 -4.31694e-17)
(32.9557 -1.69291 -2.90285e-15)
(32.0554 -2.2054 -1.08339e-16)
(31.0977 -2.61675 1.27238e-16)
(30.0674 -2.91815 0)
(28.991 -3.0762 4.41006e-15)
(27.7476 -3.09643 2.51192e-15)
(26.5179 -2.69931 0)
(24.9625 -2.43447 0)
(19.3019 11.7467 0)
(18.8467 11.1782 2.00522e-16)
(18.3927 10.4966 -6.64303e-16)
(17.9495 9.71867 -3.22175e-16)
(17.5767 8.89092 -7.89482e-16)
(17.2727 7.99992 0)
(17.0565 7.06198 0)
(16.9411 6.13468 -8.56944e-16)
(16.9244 5.25406 8.95947e-16)
(16.998 4.42497 0)
(17.149 3.659 -4.66045e-16)
(17.3643 2.96621 -5.0297e-16)
(17.6357 2.34094 4.7627e-16)
(17.9565 1.77788 4.9419e-16)
(18.3206 1.27583 -9.18189e-16)
(18.7251 0.83136 0)
(19.1665 0.443746 -2.07732e-16)
(19.6406 0.113755 1.29698e-17)
(20.1435 -0.15724 9.22689e-16)
(20.6703 -0.367416 -1.70942e-16)
(21.2153 -0.514157 1.64211e-16)
(21.7718 -0.594846 -1.25484e-16)
(22.3321 -0.606578 1.78091e-16)
(22.8848 -0.547786 -8.48225e-16)
(23.4135 -0.419808 -3.01575e-16)
(23.9012 -0.228485 2.61195e-16)
(24.3361 0.0160101 -1.60365e-17)
(24.7112 0.302648 0)
(25.0224 0.620979 -9.22418e-18)
(25.2666 0.960443 5.44923e-17)
(25.442 1.31018 -7.72216e-17)
(25.5488 1.65995 1.28767e-16)
(25.5871 2.0011 -4.81467e-16)
(25.5573 2.32484 5.10644e-16)
(25.4536 2.624 -7.84944e-18)
(25.2746 2.885 6.73018e-16)