/*--------------------------------*- C++ -*----------------------------------*\
| =========                 |                                                 |
| \\      /  F ield         | OpenFOAM: The Open Source CFD Toolbox           |
|  \\    /   O peration     | Version:  2312                                  |
|   \\  /    A nd           | Website:  www.openfoam.com                      |
|    \\/     M anipulation  |                                                 |
\*---------------------------------------------------------------------------*/
FoamFile
{
    version     2.0;
    format      ascii;
    arch        "LSB;label=32;scalar=64";
    class       volScalarField;
    location    "450";
    object      div(phi);
}
// * * * * * * * * * * * * * * * * * * * * * * * * * * * * * * * * * * * * * //

dimensions      [0 0 -1 0 0 0 0];

internalField   nonuniform List<scalar> 
10720
(
1.46683e-06
-1.46754e-06
6.57012e-07
-9.97006e-07
2.87758e-07
-2.42649e-08
5.44763e-07
4.23265e-07
1.85282e-07
-1.13149e-07
-1.97363e-07
-3.54181e-07
-3.2826e-07
-3.2902e-07
-1.97386e-07
-1.77255e-07
-7.83405e-08
-1.24777e-07
2.04163e-08
1.30344e-08
4.10447e-07
4.52936e-07
9.53298e-07
5.38442e-06
9.65096e-06
-1.13966e-05
2.63358e-06
7.77828e-06
-2.45569e-06
9.83752e-06
-5.92669e-06
5.76514e-06
4.7237e-06
-1.52897e-05
1.91896e-05
1.6504e-05
1.59787e-06
3.32572e-05
0.000387157
-1.42957e-06
8.42112e-07
-5.62539e-07
1.01724e-07
-6.08708e-08
-5.82957e-08
1.88101e-08
6.83766e-08
-5.22873e-08
7.66964e-08
6.21495e-08
1.77699e-07
1.50364e-07
2.03901e-07
1.53716e-07
1.85411e-07
1.26962e-07
1.70769e-07
7.1736e-08
1.27053e-07
-8.39532e-08
-5.53434e-08
-5.38893e-07
-6.62344e-07
-6.54085e-07
-6.25014e-07
-4.4111e-07
-4.48956e-07
-1.54493e-07
-7.20603e-07
-6.17135e-07
-1.30927e-06
-1.02325e-07
3.25484e-06
-4.03168e-06
-1.24617e-05
1.28155e-05
-1.74675e-06
-7.74424e-06
6.27479e-07
-4.71981e-07
4.61426e-07
-7.38256e-07
4.72513e-07
1.64476e-07
5.78216e-07
3.6797e-07
6.02606e-08
-1.47389e-07
-2.38633e-07
-3.65867e-07
-3.11188e-07
-3.13235e-07
-1.84228e-07
-1.97629e-07
-9.93074e-08
-1.45913e-07
-1.70169e-08
-3.54829e-08
2.09894e-07
1.06929e-07
2.91495e-07
8.78736e-07
2.02141e-06
-5.92406e-07
1.6467e-06
2.84888e-06
-2.86145e-07
5.19183e-06
-1.99543e-06
5.12612e-06
5.73831e-06
-6.08403e-06
1.17189e-05
1.12088e-05
1.8802e-06
3.10443e-05
0.000227741
-1.04187e-07
3.88925e-07
-2.5055e-07
1.04406e-07
-1.65278e-07
6.69468e-08
4.32345e-08
-2.9857e-09
-3.47512e-08
2.79983e-08
5.33234e-08
1.40082e-07
1.2957e-07
1.82557e-07
1.41943e-07
1.81733e-07
1.30148e-07
1.67189e-07
8.40156e-08
1.0043e-07
-7.20609e-08
-1.27045e-07
-5.39438e-07
-6.9438e-07
-8.03881e-07
-7.22007e-07
-6.01388e-07
-4.71519e-07
-3.32233e-07
-8.33793e-07
-7.75438e-07
-1.42048e-06
-9.12952e-07
1.86346e-06
-1.91354e-06
-9.66679e-06
1.15003e-05
-5.05284e-06
-4.99254e-06
-1.55836e-06
1.00312e-06
-1.01885e-06
6.91631e-07
-8.35155e-08
6.40885e-07
4.95368e-07
2.08022e-07
-5.19927e-08
-1.70342e-07
-3.32146e-07
-3.27779e-07
-3.74978e-07
-2.66594e-07
-2.37104e-07
-1.47084e-07
-1.25001e-07
-9.01769e-08
-3.68291e-08
2.97538e-08
2.43167e-07
3.67607e-07
5.93789e-07
2.18791e-06
3.65789e-06
-4.81388e-06
7.98054e-07
4.39464e-06
-1.74128e-06
5.65658e-06
-3.9051e-06
2.3394e-06
1.49084e-06
-9.89703e-06
1.05021e-05
7.76247e-06
9.55709e-07
7.55475e-06
0.000114534
1.01717e-06
-5.20594e-07
2.65808e-07
-1.84612e-07
9.98497e-08
-2.47505e-08
6.14517e-08
-3.9655e-08
2.54219e-08
8.57623e-09
1.20163e-07
1.07315e-07
1.77948e-07
1.42434e-07
1.72725e-07
1.34088e-07
1.46397e-07
1.16214e-07
1.08075e-07
7.08617e-08
8.86468e-09
-7.35564e-08
-2.98083e-07
-4.38304e-07
-4.43469e-07
-4.25235e-07
-3.59868e-07
-3.2215e-07
-1.49933e-07
-4.82758e-07
-4.41349e-07
-1.2275e-06
3.30223e-07
3.99529e-06
-4.44462e-06
-1.34023e-05
1.39714e-05
-1.57383e-06
-5.46824e-06
9.11382e-07
-5.41648e-07
3.8113e-07
-4.28361e-08
5.55326e-07
5.7281e-07
3.30891e-07
1.16168e-07
-1.10506e-07
-2.29907e-07
-3.55084e-07
-3.39117e-07
-3.62548e-07
-2.40537e-07
-2.5266e-07
-1.43755e-07
-1.93629e-07
-9.73592e-08
-1.24137e-07
2.56636e-08
7.79458e-08
1.7458e-07
1.6747e-07
8.35773e-07
1.43464e-06
1.19064e-07
1.34605e-06
2.02315e-06
6.03965e-08
4.00447e-06
-1.08279e-06
3.93529e-06
4.93558e-06
-4.01154e-06
8.86927e-06
8.10289e-06
1.2724e-06
2.12427e-05
0.000119136
-3.78804e-07
1.32558e-07
-1.37549e-07
-1.81832e-09
-2.95131e-08
1.56731e-07
1.8659e-08
-1.06701e-08
-1.11191e-08
2.40212e-08
8.45326e-08
9.99835e-08
1.50425e-07
1.22879e-07
1.61828e-07
1.17604e-07
1.5408e-07
1.00708e-07
1.18823e-07
3.80385e-08
-3.13655e-09
-1.56491e-07
-3.50256e-07
-5.62588e-07
-6.44298e-07
-6.84609e-07
-5.86942e-07
-4.97417e-07
-3.86131e-07
-7.03598e-07
-7.64714e-07
-1.46849e-06
-9.86171e-07
2.07247e-06
-1.91573e-06
-1.09114e-05
1.34925e-05
-6.76611e-06
-4.34319e-06
5.97847e-07
7.42023e-08
1.28603e-07
4.09639e-07
5.18261e-07
4.61582e-07
2.76812e-07
-1.65107e-08
-1.28103e-07
-3.16661e-07
-3.13128e-07
-3.90214e-07
-2.87509e-07
-2.8858e-07
-1.85264e-07
-1.8641e-07
-1.15055e-07
-1.13224e-07
-5.02012e-08
2.84229e-08
2.03448e-07
3.51665e-07
4.36668e-07
1.64699e-06
2.83709e-06
-3.94886e-06
6.19261e-07
4.66699e-06
-1.65061e-06
5.38991e-06
-3.81314e-06
1.33723e-06
1.41796e-06
-1.18045e-05
1.00771e-05
7.04171e-06
3.86237e-07
3.14076e-06
5.86852e-05
-1.68879e-07
-1.46657e-08
-1.81765e-07
-2.62156e-08
1.59105e-07
3.64684e-08
1.73085e-08
4.43571e-09
-2.29796e-08
6.58485e-08
6.52081e-08
1.47153e-07
1.17303e-07
1.65076e-07
1.19187e-07
1.48794e-07
1.03133e-07
1.25726e-07
7.63893e-08
8.72685e-08
7.92764e-09
-1.47387e-08
-1.86816e-07
-2.21421e-07
-3.25283e-07
-2.74701e-07
-2.87013e-07
-1.9535e-07
-1.70202e-07
-1.7744e-07
-3.30708e-07
-1.0683e-06
5.05229e-07
4.61854e-06
-4.37515e-06
-1.53346e-05
1.62141e-05
-3.3464e-06
-3.74436e-06
2.883e-08
1.71994e-07
4.50182e-07
2.93031e-07
5.16815e-07
3.74517e-07
1.30796e-07
-2.55018e-08
-1.9739e-07
-3.20054e-07
-3.33888e-07
-3.57173e-07
-2.64192e-07
-2.65666e-07
-1.64e-07
-2.02242e-07
-1.19222e-07
-1.75124e-07
-5.82093e-08
-5.55529e-08
1.15033e-07
4.52237e-08
1.4191e-07
5.91004e-07
1.12023e-06
2.70595e-07
1.31663e-06
1.67624e-06
3.07277e-07
3.78558e-06
-7.85293e-07
3.72055e-06
5.18673e-06
-4.29589e-06
9.30961e-06
8.30377e-06
5.23429e-07
1.84006e-05
7.77676e-05
6.1715e-09
-1.7525e-07
-1.74702e-07
3.72449e-08
7.73615e-08
1.34761e-07
2.82169e-08
-1.92e-08
1.10991e-09
3.62449e-08
7.74622e-08
1.17948e-07
1.17066e-07
1.37521e-07
1.11764e-07
1.28851e-07
9.82748e-08
1.09468e-07
7.1132e-08
5.11929e-08
-1.63973e-08
-1.10035e-07
-2.51778e-07
-4.13356e-07
-5.20536e-07
-6.09815e-07
-5.66662e-07
-5.27345e-07
-3.9823e-07
-5.85667e-07
-7.0453e-07
-1.38204e-06
-9.47269e-07
1.92003e-06
-1.58185e-06
-1.03767e-05
1.34276e-05
-7.80627e-06
-3.45743e-06
-5.19611e-07
5.54558e-07
1.25468e-07
4.59653e-07
3.85258e-07
2.5503e-07
8.71638e-08
-5.61338e-08
-2.58649e-07
-2.76721e-07
-3.67546e-07
-2.7406e-07
-2.91679e-07
-1.90135e-07
-2.03902e-07
-1.32499e-07
-1.47698e-07
-9.26699e-08
-7.64751e-08
2.34932e-08
1.36881e-07
2.22901e-07
1.54043e-07
1.04317e-06
1.67278e-06
-2.60082e-06
7.17671e-07
3.99309e-06
-9.04459e-07
4.69282e-06
-3.60154e-06
7.60834e-07
1.10836e-06
-1.37032e-05
1.11742e-05
7.94381e-06
-1.90186e-06
1.92411e-06
3.47835e-05
1.26541e-07
-4.27471e-07
-6.87067e-08
4.36994e-08
1.51221e-07
4.96012e-08
3.48064e-08
-2.06624e-08
1.35114e-08
2.62915e-08
1.04819e-07
9.48516e-08
1.46702e-07
1.05345e-07
1.37322e-07
8.98982e-08
1.17608e-07
6.88801e-08
9.80372e-08
3.48433e-08
6.32485e-08
-4.12114e-08
-2.91541e-08
-1.69917e-07
-1.15111e-07
-2.3841e-07
-1.08953e-07
-1.60181e-07
-1.54353e-08
1.88855e-08
-1.65301e-07
-9.9499e-07
6.78154e-07
4.67759e-06
-4.12872e-06
-1.53997e-05
1.7822e-05
-4.42686e-06
-2.19562e-06
1.12855e-06
1.81388e-07
4.80887e-07
3.69127e-07
2.88169e-07
1.91385e-07
6.7567e-08
-9.4313e-08
-2.29816e-07
-2.90814e-07
-3.19431e-07
-2.51601e-07
-2.48451e-07
-1.61423e-07
-1.87356e-07
-1.09554e-07
-1.67602e-07
-8.91247e-08
-1.25125e-07
1.78013e-08
1.46003e-08
5.35583e-08
2.87306e-09
4.71845e-07
7.20073e-07
3.69899e-07
1.03761e-06
1.2758e-06
4.66866e-07
3.23872e-06
-4.24561e-07
3.24854e-06
4.9111e-06
-3.86931e-06
9.05082e-06
8.62741e-06
-3.48115e-07
1.78449e-05
5.66438e-05
-4.90682e-07
-8.05093e-09
-1.24296e-07
4.83921e-08
8.67743e-08
1.12125e-07
1.13448e-08
-1.01588e-08
-4.98523e-09
4.18959e-08
7.73711e-08
1.11564e-07
1.15871e-07
1.15518e-07
1.02987e-07
9.79751e-08
8.19423e-08
8.0557e-08
5.22663e-08
4.0401e-08
-1.80901e-08
-7.2917e-08
-1.81635e-07
-2.93957e-07
-4.05975e-07
-5.05325e-07
-5.21738e-07
-5.17381e-07
-4.03945e-07
-5.14329e-07
-6.80434e-07
-1.26841e-06
-8.84938e-07
1.71376e-06
-1.32212e-06
-9.30926e-06
1.25528e-05
-7.85533e-06
-2.68084e-06
-2.26011e-07
5.24665e-07
3.90192e-07
2.9512e-07
2.52891e-07
1.44945e-07
6.6812e-08
-1.228e-07
-1.9166e-07
-3.14055e-07
-2.35503e-07
-2.66103e-07
-1.6373e-07
-1.93828e-07
-1.14495e-07
-1.52873e-07
-9.26428e-08
-1.26994e-07
-4.78571e-08
-2.86288e-08
1.09012e-07
3.45396e-08
1.74331e-08
5.02285e-07
1.10751e-06
-1.50209e-06
6.51205e-07
3.29144e-06
-1.03426e-07
4.20726e-06
-3.11453e-06
9.77102e-08
1.13587e-06
-1.45878e-05
1.05124e-05
8.20035e-06
-3.94725e-06
1.48057e-06
2.14586e-05
1.2556e-07
-2.52648e-07
-6.81638e-08
7.28646e-08
1.27205e-07
5.20502e-08
1.56936e-08
-6.88997e-09
-4.46929e-09
4.90483e-08
7.11544e-08
1.20126e-07
1.00957e-07
1.20499e-07
8.39615e-08
9.80631e-08
6.16174e-08
7.98065e-08
4.03541e-08
6.31124e-08
1.25148e-08
3.11295e-08
-3.81999e-08
-2.33448e-08
-8.71132e-08
-5.78873e-08
-7.2234e-08
1.63744e-08
5.78702e-08
1.91798e-07
-4.94885e-08
-8.60579e-07
6.39556e-07
4.69929e-06
-3.69229e-06
-1.59058e-05
1.82587e-05
-5.38232e-06
-1.04194e-06
4.80905e-07
4.13565e-07
3.28192e-07
2.73616e-07
1.72875e-07
1.64209e-07
1.56911e-08
-1.02814e-07
-2.19252e-07
-2.59487e-07
-2.27231e-07
-2.10111e-07
-1.48491e-07
-1.51837e-07
-1.00428e-07
-1.26443e-07
-8.67482e-08
-1.18509e-07
-5.80173e-08
-2.4501e-08
3.15816e-08
-2.23166e-08
-2.312e-09
3.39495e-07
5.26957e-07
3.02414e-07
7.70548e-07
9.91653e-07
5.61929e-07
2.74665e-06
-2.32594e-07
2.87252e-06
4.30173e-06
-3.07691e-06
7.70664e-06
7.75073e-06
-1.00262e-06
1.67361e-05
4.33622e-05
-1.17775e-07
-1.72291e-07
-2.26397e-08
8.96054e-08
9.91416e-08
8.10944e-08
1.35465e-08
-1.65368e-08
4.78334e-09
3.01838e-08
8.91571e-08
9.40005e-08
1.19727e-07
8.85598e-08
9.87856e-08
6.29317e-08
7.665e-08
4.15725e-08
5.38426e-08
1.04324e-08
4.62136e-09
-6.63668e-08
-1.08634e-07
-2.22043e-07
-2.86035e-07
-4.08797e-07
-4.27963e-07
-4.81818e-07
-3.87833e-07
-4.92412e-07
-6.48837e-07
-1.1775e-06
-8.12462e-07
1.5373e-06
-1.17167e-06
-8.31428e-06
1.13701e-05
-7.58049e-06
-2.17122e-06
4.98847e-07
3.62132e-07
2.66668e-07
1.90095e-07
2.05154e-07
1.01775e-07
4.82241e-09
-7.90158e-08
-2.36358e-07
-1.98024e-07
-2.35729e-07
-1.37732e-07
-1.67808e-07
-8.59001e-08
-1.3406e-07
-6.78368e-08
-1.3012e-07
-5.77803e-08
-1.08382e-07
2.7282e-08
-2.80062e-08
2.68688e-08
-1.72508e-07
3.8248e-07
6.16756e-07
-6.7778e-07
4.21624e-07
2.60903e-06
2.31015e-07
4.03642e-06
-3.36185e-06
-1.9917e-07
7.61881e-07
-1.42623e-05
9.75945e-06
7.74347e-06
-6.21075e-06
4.62296e-07
1.58241e-05
-1.85435e-07
-5.31712e-08
1.11356e-08
9.46071e-08
1.18829e-07
5.02706e-08
1.49061e-08
-8.92341e-09
3.46785e-09
3.93386e-08
7.91684e-08
9.93659e-08
1.01206e-07
9.06495e-08
7.65196e-08
6.38019e-08
5.41345e-08
4.30618e-08
4.00451e-08
2.73502e-08
2.96688e-08
9.73986e-09
1.63674e-08
-1.17773e-08
1.01972e-08
-1.55057e-08
5.06453e-08
7.65763e-08
1.72296e-07
2.81288e-07
7.00591e-08
-7.8133e-07
7.25278e-07
4.5697e-06
-3.57647e-06
-1.57955e-05
1.93657e-05
-5.84051e-06
-4.23168e-07
1.63232e-07
2.26135e-07
1.8619e-07
1.99241e-07
1.23371e-07
1.18136e-07
3.16879e-08
-1.22419e-07
-1.66878e-07
-2.06035e-07
-1.76034e-07
-1.48578e-07
-1.09335e-07
-9.75755e-08
-7.59898e-08
-8.57262e-08
-6.74617e-08
-8.57163e-08
-3.52304e-08
-2.3855e-08
2.56282e-08
-4.98813e-08
1.96765e-08
2.61585e-07
3.95578e-07
2.1066e-07
5.78963e-07
7.20961e-07
6.70234e-07
2.16109e-06
-5.24297e-09
2.51497e-06
3.81186e-06
-2.12947e-06
6.55426e-06
6.59261e-06
-1.38339e-06
1.43561e-05
3.12655e-05
6.39599e-08
-2.91445e-08
3.62265e-08
1.18847e-07
9.67565e-08
6.84882e-08
7.89059e-09
-8.75645e-09
-3.88143e-09
4.71898e-08
6.78479e-08
1.07003e-07
8.58552e-08
9.44256e-08
5.94711e-08
6.78384e-08
3.61347e-08
4.95997e-08
1.77626e-08
2.88291e-08
-1.40318e-08
-2.1975e-08
-8.78117e-08
-1.33373e-07
-2.16506e-07
-2.88417e-07
-3.47751e-07
-3.94693e-07
-3.77039e-07
-4.52501e-07
-6.41573e-07
-1.05606e-06
-7.49031e-07
1.27798e-06
-1.06977e-06
-7.18501e-06
1.02369e-05
-7.03707e-06
-1.83724e-06
2.55743e-07
1.47096e-07
1.59522e-07
1.25876e-07
1.72986e-07
8.21419e-08
2.03787e-08
-7.00555e-08
-1.47104e-07
-2.04717e-07
-1.4513e-07
-1.47748e-07
-7.89891e-08
-1.0037e-07
-5.25274e-08
-9.53802e-08
-5.27686e-08
-1.0573e-07
-2.77933e-08
-6.29943e-08
2.147e-08
-1.20806e-07
-7.56164e-08
1.35272e-07
4.88298e-07
-4.47277e-07
3.84998e-07
1.52593e-06
7.65085e-07
2.93572e-06
-2.8208e-06
-7.67534e-07
4.55943e-07
-1.39296e-05
8.76186e-06
7.58664e-06
-7.44381e-06
3.28828e-07
9.00602e-06
1.91995e-08
2.35781e-08
1.02076e-07
1.07981e-07
1.11166e-07
4.39954e-08
1.27236e-08
-7.45525e-09
1.07998e-08
3.44367e-08
7.89439e-08
7.87849e-08
9.39952e-08
6.31932e-08
6.8355e-08
3.82818e-08
4.52695e-08
2.23739e-08
2.98635e-08
1.45327e-08
2.07097e-08
1.11065e-08
1.83633e-08
1.21441e-08
3.16078e-08
3.01749e-08
8.90888e-08
1.24197e-07
2.05062e-07
2.91633e-07
1.17908e-07
-5.50015e-07
8.27486e-07
4.36655e-06
-3.17615e-06
-1.5515e-05
1.93737e-05
-6.22271e-06
-6.7597e-08
1.24938e-07
1.22337e-07
1.0708e-07
1.56441e-07
9.07814e-08
1.25836e-07
3.15124e-08
-7.18372e-08
-1.60256e-07
-1.56877e-07
-1.69751e-07
-9.57264e-08
-1.03667e-07
-4.18838e-08
-7.8957e-08
-2.89201e-08
-8.1746e-08
-1.92768e-08
-5.86554e-08
2.89609e-08
-2.72874e-08
1.71002e-09
-6.38508e-09
2.63578e-07
2.44379e-07
2.09123e-07
3.61659e-07
6.13766e-07
6.41254e-07
1.67708e-06
2.03502e-07
2.31099e-06
3.26922e-06
-1.28385e-06
5.37081e-06
5.58292e-06
-1.56055e-06
1.18922e-05
2.0386e-05
5.25721e-08
9.02627e-08
8.46626e-08
1.33575e-07
8.91775e-08
5.49233e-08
9.46522e-09
-1.23065e-08
1.17289e-08
3.5248e-08
7.57537e-08
7.85131e-08
8.27512e-08
6.23128e-08
5.82889e-08
3.75315e-08
4.02134e-08
2.12607e-08
2.92351e-08
7.84086e-09
1.04807e-08
-2.16818e-08
-3.96147e-08
-9.41632e-08
-1.36327e-07
-2.08953e-07
-2.52811e-07
-3.1888e-07
-3.37099e-07
-4.283e-07
-5.85663e-07
-9.38878e-07
-6.58343e-07
1.06069e-06
-9.36533e-07
-6.15247e-06
8.89704e-06
-6.46382e-06
-1.57907e-06
1.05155e-07
6.58638e-08
1.09662e-07
9.44703e-08
1.60924e-07
7.0806e-08
3.12192e-08
-4.72609e-08
-1.49962e-07
-1.70958e-07
-1.46785e-07
-1.1163e-07
-7.56446e-08
-6.03693e-08
-5.21207e-08
-5.42408e-08
-6.23328e-08
-5.7469e-08
-5.84319e-08
-2.34682e-08
-5.4501e-08
-8.13228e-08
-1.26576e-07
1.24017e-07
2.08598e-07
-1.97037e-07
5.22467e-08
9.84153e-07
5.0219e-07
2.04107e-06
-2.58094e-06
-1.12215e-06
-2.44429e-07
-1.38303e-05
7.76872e-06
7.25731e-06
-8.62247e-06
7.40674e-08
3.99987e-06
7.62376e-08
7.22405e-08
1.29826e-07
1.05374e-07
9.95158e-08
3.85587e-08
9.35372e-09
1.22545e-09
5.68845e-09
4.32802e-08
5.0198e-08
7.95508e-08
5.36526e-08
6.61832e-08
3.32976e-08
4.53363e-08
1.67306e-08
2.96802e-08
6.9358e-09
1.93048e-08
2.33159e-09
1.49688e-08
4.12557e-09
2.16187e-08
1.95396e-08
4.70067e-08
7.10044e-08
1.27615e-07
1.55458e-07
2.35325e-07
1.2595e-07
-3.12772e-07
7.97809e-07
4.33467e-06
-3.19119e-06
-1.4727e-05
1.93836e-05
-6.23198e-06
1.06601e-07
7.11871e-08
7.90477e-08
7.67756e-08
1.32193e-07
6.97859e-08
1.25088e-07
4.58735e-08
-9.71656e-08
-1.2275e-07
-1.79295e-07
-1.21508e-07
-1.18961e-07
-4.67134e-08
-6.8958e-08
-1.64209e-08
-6.31775e-08
-1.24815e-08
-5.84683e-08
1.64632e-08
-2.59615e-08
3.08313e-08
-4.57181e-08
7.48988e-08
1.6044e-07
2.37282e-07
1.15797e-07
3.31277e-07
4.41982e-07
6.65296e-07
1.17854e-06
4.5988e-07
2.0323e-06
2.72127e-06
-6.08536e-07
4.34991e-06
4.37906e-06
-1.68069e-06
9.53455e-06
1.26866e-05
5.42601e-08
1.0807e-07
8.84707e-08
1.30236e-07
7.95414e-08
5.07585e-08
2.65933e-09
-2.94353e-10
7.76346e-09
4.14445e-08
5.6996e-08
6.49672e-08
5.81166e-08
4.98321e-08
3.86872e-08
3.26124e-08
2.26073e-08
2.30188e-08
1.33329e-08
1.71251e-08
2.54131e-09
6.35657e-10
-2.81466e-08
-4.82881e-08
-9.61467e-08
-1.34048e-07
-1.91963e-07
-2.40493e-07
-3.05678e-07
-3.6872e-07
-5.28551e-07
-7.89661e-07
-5.3644e-07
8.67314e-07
-8.24158e-07
-4.85817e-06
7.68055e-06
-5.76409e-06
-1.37117e-06
5.76629e-08
3.51404e-08
8.69603e-08
7.15556e-08
1.53083e-07
7.46084e-08
7.98574e-09
-1.35938e-08
-1.56061e-07
-1.47734e-07
-1.55563e-07
-8.06409e-08
-8.32616e-08
-2.93592e-08
-5.78818e-08
-2.66542e-08
-6.24e-08
-3.45849e-08
-5.52549e-08
-2.66727e-08
-6.32533e-08
-8.53266e-08
-9.54069e-08
4.82231e-08
9.01549e-08
-1.61e-07
-6.62501e-08
4.38367e-07
2.59284e-07
1.027e-06
-2.13991e-06
-1.18586e-06
-1.29232e-06
-1.14153e-05
6.26619e-06
7.04224e-06
-9.13813e-06
3.80573e-07
1.03457e-06
7.34724e-08
7.55843e-08
1.27577e-07
9.82664e-08
9.19898e-08
3.14775e-08
1.1342e-08
-4.37678e-09
1.52092e-08
2.11832e-08
5.14208e-08
3.92742e-08
5.46757e-08
2.96863e-08
4.17702e-08
1.63804e-08
2.87462e-08
6.45242e-09
1.76872e-08
-8.88976e-10
8.26919e-09
-5.4563e-09
3.82454e-09
-2.23722e-09
1.15124e-08
1.44272e-08
4.41409e-08
6.4777e-08
8.76051e-08
1.36458e-07
9.51042e-08
-1.97237e-07
8.24479e-07
3.43111e-06
-3.32956e-06
-1.36068e-05
1.85576e-05
-6.03397e-06
1.58344e-07
4.37505e-08
6.50082e-08
5.62068e-08
1.16896e-07
6.56316e-08
1.11141e-07
5.75829e-08
-8.65603e-08
-1.29895e-07
-1.40727e-07
-1.34188e-07
-7.62626e-08
-6.71037e-08
-2.47181e-08
-4.45403e-08
-1.29325e-08
-4.50203e-08
5.69137e-11
-2.48173e-08
2.974e-08
-1.8475e-08
2.50457e-08
3.36598e-08
1.80321e-07
1.39125e-07
1.57355e-07
2.2462e-07
4.05294e-07
5.53533e-07
8.89338e-07
5.92641e-07
1.79749e-06
2.18556e-06
6.557e-08
3.37253e-06
3.26835e-06
-1.73274e-06
7.52868e-06
7.71522e-06
5.02802e-08
1.02005e-07
8.42434e-08
1.20211e-07
7.19135e-08
3.37427e-08
6.34668e-09
-5.11791e-09
1.62819e-08
3.03345e-08
4.51561e-08
4.46831e-08
4.0471e-08
3.54303e-08
2.74097e-08
2.20938e-08
1.6947e-08
1.16381e-08
1.26036e-08
5.60701e-09
8.08395e-09
-4.71654e-09
-1.02526e-08
-3.68689e-08
-5.83567e-08
-1.00312e-07
-1.36002e-07
-1.98688e-07
-2.48399e-07
-3.21831e-07
-4.38863e-07
-6.44769e-07
-3.97995e-07
6.36815e-07
-6.93158e-07
-3.62971e-06
6.40884e-06
-5.11552e-06
-1.20177e-06
4.64786e-08
2.24346e-08
7.20355e-08
6.54246e-08
1.43334e-07
5.53985e-08
2.05902e-08
-2.46646e-08
-1.1301e-07
-1.63402e-07
-9.71262e-08
-1.02622e-07
-3.12718e-08
-5.80175e-08
-9.75534e-09
-5.2744e-08
-1.44633e-08
-5.4258e-08
-1.25789e-08
-5.18102e-08
-3.15199e-08
-9.1103e-08
-4.62509e-08
-5.22465e-09
4.29688e-08
-1.48519e-07
-1.04814e-07
6.505e-08
1.01057e-07
2.25986e-07
-1.4324e-06
-1.20957e-06
-1.3316e-06
-8.84933e-06
4.5118e-06
7.08716e-06
-9.0616e-06
4.64993e-07
-5.07053e-07
6.5824e-08
7.19621e-08
1.17962e-07
8.80825e-08
7.12404e-08
3.4426e-08
6.77702e-10
5.40598e-10
-2.91068e-10
2.44259e-08
2.00917e-08
3.85075e-08
2.21597e-08
3.46666e-08
1.49775e-08
2.56998e-08
6.05691e-09
1.70044e-08
-8.99567e-10
6.75815e-09
-9.57838e-09
-5.35825e-09
-1.79979e-08
-1.2659e-08
-2.08828e-08
-1.16076e-08
-1.10456e-08
5.02058e-09
3.97568e-09
4.84276e-08
1.48234e-08
-1.43662e-07
5.45715e-07
2.26298e-06
-2.98682e-06
-1.32391e-05
1.69813e-05
-5.51258e-06
1.8703e-07
3.82911e-08
5.37327e-08
4.89936e-08
1.05799e-07
3.97366e-08
1.15881e-07
4.79698e-08
-9.24507e-08
-1.04246e-07
-1.23637e-07
-9.30547e-08
-7.06369e-08
-3.55901e-08
-3.31583e-08
-1.1844e-08
-2.80558e-08
-4.14387e-09
-2.03364e-08
1.94301e-08
-2.52091e-09
3.33311e-08
3.13053e-09
8.77455e-08
1.1327e-07
1.58836e-07
1.09524e-07
2.28119e-07
3.03708e-07
5.10764e-07
6.62133e-07
7.05251e-07
1.51942e-06
1.75291e-06
3.92956e-07
2.60366e-06
2.25309e-06
-1.75122e-06
5.74812e-06
4.70545e-06
4.55694e-08
9.28752e-08
7.62764e-08
1.04945e-07
6.50709e-08
2.00047e-08
3.52813e-10
1.57857e-09
1.03697e-08
2.59956e-08
3.00936e-08
2.95891e-08
2.8597e-08
2.3396e-08
2.00446e-08
1.28496e-08
9.3039e-09
5.67769e-09
2.55802e-09
2.21414e-09
-3.49356e-09
-4.1597e-09
-1.65011e-08
-2.56777e-08
-5.07388e-08
-7.29451e-08
-1.13992e-07
-1.55524e-07
-2.11037e-07
-2.57265e-07
-3.70004e-07
-5.03879e-07
-3.09328e-07
4.94352e-07
-6.73724e-07
-2.45912e-06
5.21887e-06
-4.35784e-06
-1.03514e-06
3.62123e-08
1.24503e-08
6.34559e-08
4.69682e-08
1.38626e-07
4.90076e-08
-5.33131e-09
2.03314e-08
-1.20787e-07
-9.0011e-08
-1.03572e-07
-3.83624e-08
-5.39406e-08
-2.01252e-09
-3.63109e-08
3.23391e-09
-3.62929e-08
3.63112e-09
-3.26561e-08
4.51887e-09
-4.65233e-08
-2.19028e-08
-4.57001e-08
3.14092e-08
-6.12753e-09
-6.57973e-08
-1.42775e-07
-2.21701e-08
-7.68176e-08
2.13413e-08
-9.72019e-07
-7.71446e-07
-1.17385e-06
-5.89669e-06
3.34308e-06
5.90234e-06
-8.55613e-06
8.14112e-07
-9.01533e-07
5.91715e-08
6.65819e-08
1.07305e-07
7.87106e-08
5.78793e-08
3.17792e-08
1.38771e-10
-1.36129e-08
5.13907e-09
3.45096e-09
2.15993e-08
1.30061e-08
2.68167e-08
1.07182e-08
2.21526e-08
2.53509e-09
1.3378e-08
-1.7019e-09
6.88172e-09
-8.18912e-09
-5.25026e-09
-2.11003e-08
-2.16792e-08
-3.54014e-08
-3.58437e-08
-4.77197e-08
-4.54938e-08
-5.47689e-08
-4.78806e-08
-3.41378e-08
-5.56606e-08
-1.93308e-07
1.97065e-07
1.32707e-06
-3.1259e-06
-1.07487e-05
1.47743e-05
-4.76906e-06
1.29876e-07
2.59037e-08
4.93768e-08
3.63765e-08
9.53539e-08
3.43768e-08
1.00305e-07
6.80501e-08
-8.19505e-08
-6.12261e-08
-7.59088e-08
-6.53033e-08
-3.88199e-08
-2.47035e-08
-6.57709e-09
-9.10726e-09
3.48769e-09
-5.04226e-09
1.66944e-08
1.11614e-08
3.75645e-08
2.42302e-08
5.62975e-08
7.07644e-08
1.33734e-07
1.17067e-07
1.36861e-07
1.79371e-07
2.81403e-07
4.289e-07
5.68873e-07
6.939e-07
1.27295e-06
1.37515e-06
6.1386e-07
2.0282e-06
1.34488e-06
-1.70043e-06
4.36788e-06
2.88931e-06
4.13106e-08
8.34215e-08
6.97434e-08
9.34333e-08
5.67389e-08
1.77191e-09
-2.01116e-09
-5.31399e-10
8.44392e-09
1.8396e-08
1.96371e-08
2.23755e-08
1.73031e-08
2.11774e-08
5.42363e-09
8.89644e-09
1.69205e-09
5.42132e-10
-3.52757e-09
-5.75816e-09
-8.67405e-09
-1.4519e-08
-1.95838e-08
-3.14148e-08
-4.50654e-08
-6.76939e-08
-9.5016e-08
-1.33426e-07
-1.69102e-07
-2.15813e-07
-3.02965e-07
-4.10364e-07
-2.23652e-07
3.09247e-07
-6.6673e-07
-1.2928e-06
4.10194e-06
-3.62644e-06
-8.68082e-07
3.22647e-08
7.08361e-09
5.38029e-08
4.31941e-08
1.28297e-07
3.7934e-08
1.56099e-08
2.9893e-08
-4.6202e-08
-7.91251e-08
-3.64733e-08
-4.79937e-08
2.67069e-09
-1.96977e-08
1.96893e-08
-1.27662e-08
2.33461e-08
-8.42653e-09
2.97177e-08
-4.96364e-09
2.45318e-08
-1.65402e-08
3.3046e-08
1.78008e-08
5.20854e-08
-4.56414e-08
-4.58094e-08
-7.62437e-08
-1.33245e-08
-6.92052e-08
-4.64185e-07
-4.19544e-07
-6.62816e-07
-3.34451e-06
2.12088e-06
4.22423e-06
-7.11837e-06
9.14647e-07
-1.00683e-06
5.22569e-08
6.06266e-08
9.75308e-08
6.44818e-08
4.05314e-08
3.20407e-08
-1.38247e-08
-1.01813e-08
-7.63099e-09
7.04871e-09
5.37866e-09
1.68819e-08
1.2697e-08
1.04904e-08
2.1367e-09
5.9234e-09
-8.82774e-09
4.8568e-09
-5.19204e-09
5.59171e-11
-1.38611e-08
-1.71066e-08
-3.29003e-08
-3.87873e-08
-5.37182e-08
-6.00796e-08
-7.4664e-08
-7.88339e-08
-8.7823e-08
-7.47493e-08
-1.28701e-07
-2.29061e-07
-3.75255e-08
5.72885e-07
-2.58919e-06
-7.67514e-06
1.14259e-05
-3.98588e-06
6.85528e-08
2.46372e-08
4.16929e-08
3.27806e-08
8.51623e-08
1.6559e-08
1.07119e-07
6.49167e-08
-4.35236e-08
-2.44239e-08
-3.86868e-08
-3.54261e-08
-1.66732e-08
-5.08767e-09
9.36133e-09
1.26611e-08
1.85172e-08
2.15979e-08
2.97867e-08
3.87e-08
4.68315e-08
5.79789e-08
6.99182e-08
9.67076e-08
1.21598e-07
1.22957e-07
1.31274e-07
1.71005e-07
2.49401e-07
3.79992e-07
4.84438e-07
6.45245e-07
1.03469e-06
1.10042e-06
6.4946e-07
1.57528e-06
7.00393e-07
-1.4637e-06
3.26089e-06
1.79546e-06
3.56835e-08
7.44675e-08
5.77977e-08
8.1296e-08
4.80213e-08
-1.53191e-08
-1.22169e-09
-2.72448e-09
8.01827e-09
1.13008e-08
1.70726e-08
1.68265e-08
1.28712e-08
6.61959e-09
-4.93998e-13
-1.46282e-08
1.29445e-08
-1.57421e-08
-1.62175e-09
-8.30718e-09
-1.01123e-08
-1.84623e-08
-2.53753e-08
-3.51398e-08
-4.72203e-08
-6.42373e-08
-8.64436e-08
-1.13533e-07
-1.41585e-07
-1.81162e-07
-2.59056e-07
-3.29379e-07
-1.8763e-07
1.81024e-07
-6.49796e-07
-4.37938e-07
2.98408e-06
-2.88941e-06
-7.00495e-07
2.47709e-08
9.57831e-10
4.76004e-08
2.99746e-08
1.22143e-07
3.73718e-08
2.07351e-08
7.02635e-08
-3.33914e-08
-2.31587e-08
-3.82786e-08
-3.22631e-09
-8.44733e-09
2.48635e-08
1.0054e-08
3.64323e-08
1.79176e-08
4.49432e-08
2.64341e-08
5.41534e-08
2.80577e-08
5.56143e-08
3.91928e-08
7.99565e-08
5.27538e-08
4.62341e-08
-9.08687e-09
1.40336e-08
1.23782e-08
2.32408e-08
-1.67755e-07
-8.09175e-08
-2.26703e-07
-1.86404e-06
1.27286e-06
2.49785e-06
-5.91127e-06
1.16139e-06
-7.37009e-07
4.61915e-08
5.218e-08
8.72889e-08
5.28178e-08
2.76883e-08
3.1473e-08
-1.54994e-08
-1.61253e-08
-5.03437e-09
9.28848e-11
1.00808e-08
6.7901e-09
1.1818e-08
-6.68898e-09
-1.60111e-08
1.77239e-08
-2.11273e-08
-3.82456e-09
-1.55458e-08
-4.31836e-09
-5.8062e-09
-1.76982e-08
-2.78991e-08
-4.35372e-08
-5.35708e-08
-6.83625e-08
-7.80675e-08
-9.24108e-08
-9.42091e-08
-1.08793e-07
-1.50345e-07
-2.4713e-07
-1.23504e-07
2.64917e-07
-1.83381e-06
-4.61606e-06
8.64458e-06
-3.2248e-06
-6.17208e-08
1.54011e-08
3.90384e-08
2.35465e-08
7.55237e-08
1.60194e-08
1.00339e-07
8.29356e-08
-2.28835e-08
1.05372e-08
-1.71293e-08
-1.31556e-08
-1.04933e-08
1.33879e-08
1.64295e-08
3.41333e-08
3.04449e-08
4.53836e-08
4.35337e-08
6.08941e-08
5.99612e-08
8.09426e-08
8.57954e-08
1.12474e-07
1.18472e-07
1.25793e-07
1.28981e-07
1.62995e-07
2.25137e-07
3.25133e-07
4.11954e-07
5.58822e-07
8.30122e-07
8.17131e-07
5.80099e-07
1.22304e-06
2.65014e-07
-1.18709e-06
2.47544e-06
1.1686e-06
3.03076e-08
6.51189e-08
4.83741e-08
7.05428e-08
3.95604e-08
-2.36546e-08
-3.4381e-09
-1.7059e-09
4.05835e-09
1.15829e-08
1.22076e-08
1.70402e-08
-3.22475e-09
-1.42726e-08
1.21014e-08
-1.12844e-08
5.12297e-09
-3.59348e-08
-8.25939e-09
-2.04389e-08
-1.34512e-08
-1.66751e-08
-2.68686e-08
-3.60462e-08
-4.84413e-08
-6.15084e-08
-7.95306e-08
-9.83067e-08
-1.21858e-07
-1.58288e-07
-2.21607e-07
-2.72255e-07
-1.37903e-07
6.18027e-08
-5.71565e-07
1.35594e-07
2.10881e-06
-2.22947e-06
-5.57759e-07
2.16528e-08
-1.84777e-09
3.99331e-08
2.88256e-08
1.11964e-07
3.37943e-08
3.94238e-08
7.61327e-08
5.46594e-09
-1.82365e-08
-1.32786e-08
-9.75078e-09
1.30647e-08
2.06898e-08
3.70244e-08
3.73519e-08
4.96336e-08
4.87432e-08
6.09148e-08
5.95038e-08
7.15605e-08
6.74618e-08
8.35151e-08
8.5346e-08
9.58525e-08
7.46164e-08
6.43924e-08
5.83156e-08
8.1559e-08
7.52939e-08
3.59233e-08
9.46921e-08
-4.01279e-08
-1.03019e-06
7.84554e-07
8.64308e-07
-4.44948e-06
1.23256e-06
-4.27603e-07
3.97282e-08
4.41192e-08
7.73336e-08
3.82728e-08
1.87822e-08
2.72192e-08
-1.85204e-08
-1.5947e-08
-5.84122e-09
1.40552e-09
9.31228e-09
1.24094e-09
-7.98499e-09
4.76407e-09
-1.14718e-08
1.7566e-08
-3.61965e-08
-9.60137e-09
-4.90384e-08
-1.35777e-08
-2.19743e-08
-1.75768e-08
-2.69097e-08
-3.9032e-08
-5.21763e-08
-6.35036e-08
-7.65182e-08
-8.66963e-08
-9.8148e-08
-1.14214e-07
-1.62569e-07
-2.10882e-07
-1.25804e-07
1.97355e-07
-1.24462e-06
-1.82348e-06
5.90427e-06
-2.5377e-06
-1.48319e-07
1.55107e-08
3.29049e-08
2.16559e-08
6.62278e-08
6.61335e-09
1.02258e-07
7.87865e-08
-6.55695e-10
2.28635e-08
-1.6874e-09
-1.24338e-08
-2.57797e-10
1.02219e-08
3.00557e-08
3.57028e-08
4.83451e-08
5.03255e-08
6.17649e-08
6.48715e-08
7.73489e-08
8.39148e-08
1.02102e-07
1.10206e-07
1.20538e-07
1.17485e-07
1.27156e-07
1.47445e-07
1.98782e-07
2.6566e-07
3.40261e-07
4.58541e-07
6.24253e-07
5.64162e-07
5.10755e-07
9.1026e-07
1.34547e-09
-8.30657e-07
1.89038e-06
8.10304e-07
2.43632e-08
5.63216e-08
3.54322e-08
6.06847e-08
2.98496e-08
-2.73707e-08
-3.84668e-09
-1.47639e-09
3.12658e-09
1.00563e-08
1.11975e-08
5.87756e-09
-1.2588e-09
-6.53169e-09
1.55447e-08
-1.26348e-08
-6.87263e-09
-4.66484e-08
-1.69034e-08
-3.8373e-08
-2.70215e-08
-2.51303e-08
-2.67612e-08
-3.54945e-08
-4.59682e-08
-5.82497e-08
-7.13768e-08
-8.72558e-08
-1.07228e-07
-1.42385e-07
-1.89155e-07
-2.21718e-07
-9.82222e-08
-5.69341e-08
-4.27237e-07
4.23322e-07
1.34633e-06
-1.66611e-06
-4.41361e-07
1.56618e-08
-5.93005e-09
3.51366e-08
2.01142e-08
1.04462e-07
3.43712e-08
4.09912e-08
9.04467e-08
1.05207e-08
-4.6225e-09
-1.44272e-08
-5.82315e-09
1.1223e-08
2.67754e-08
3.90476e-08
4.74745e-08
5.43948e-08
6.04555e-08
6.62073e-08
7.25158e-08
7.97387e-08
8.50101e-08
8.98067e-08
9.78902e-08
1.03127e-07
1.00334e-07
9.30687e-08
9.67803e-08
1.08355e-07
1.16438e-07
1.19367e-07
1.47869e-07
7.01995e-09
-5.02526e-07
4.24177e-07
-1.99815e-08
-3.26021e-06
1.21265e-06
-1.0906e-07
3.41402e-08
3.53244e-08
6.68371e-08
2.77759e-08
1.33815e-08
2.4717e-08
-1.84948e-08
-1.37075e-08
-5.61095e-09
2.39198e-09
6.98825e-09
-3.97899e-09
2.71505e-09
4.80912e-09
7.05044e-09
-4.87601e-09
-1.88808e-08
-1.35704e-08
-3.75856e-08
-3.47861e-08
-3.59825e-08
-2.06158e-08
-2.43666e-08
-3.42605e-08
-4.60472e-08
-5.72307e-08
-6.82279e-08
-7.96596e-08
-9.30162e-08
-1.15514e-07
-1.50024e-07
-1.77074e-07
-8.25013e-08
7.96449e-08
-6.67801e-07
-3.52025e-07
3.86291e-06
-1.85407e-06
-2.06744e-07
8.52008e-09
3.08198e-08
1.46344e-08
5.81467e-08
7.95885e-09
9.39075e-08
8.44282e-08
8.3743e-09
3.18083e-08
3.73551e-09
-1.02769e-08
-3.15171e-09
1.22254e-08
2.76507e-08
3.99075e-08
4.81872e-08
5.54579e-08
6.13322e-08
6.83259e-08
7.5349e-08
8.49427e-08
9.70501e-08
1.05563e-07
1.08196e-07
1.08527e-07
1.12561e-07
1.29497e-07
1.63377e-07
2.09736e-07
2.67901e-07
3.50891e-07
4.38638e-07
3.84243e-07
4.45897e-07
6.50011e-07
-1.24386e-07
-5.23474e-07
1.44853e-06
6.23391e-07
1.95654e-08
4.74563e-08
2.65253e-08
5.14825e-08
2.38456e-08
-2.76731e-08
-1.68602e-09
-2.94177e-09
3.15856e-09
7.74262e-09
7.87394e-09
2.31967e-09
-4.52069e-09
1.27914e-08
4.39882e-09
-4.81483e-09
-8.12893e-09
-1.84138e-08
-2.80502e-08
-4.88746e-08
-2.48141e-08
-3.15136e-08
-2.64618e-08
-3.16509e-08
-4.16047e-08
-5.23539e-08
-6.38406e-08
-7.72155e-08
-9.72319e-08
-1.26452e-07
-1.6216e-07
-1.74977e-07
-9.20413e-08
-1.40534e-07
-2.91001e-07
4.55978e-07
8.06471e-07
-1.19855e-06
-3.60636e-07
1.31313e-08
-7.44164e-09
2.90011e-08
2.00373e-08
9.41785e-08
2.98496e-08
4.78578e-08
8.54004e-08
2.24357e-08
-3.1254e-09
-1.25285e-08
-7.04754e-09
8.8353e-09
2.47309e-08
3.7013e-08
4.61873e-08
5.27812e-08
5.87956e-08