/*--------------------------------*- C++ -*----------------------------------*\
| =========                 |                                                 |
| \\      /  F ield         | OpenFOAM: The Open Source CFD Toolbox           |
|  \\    /   O peration     | Version:  2312                                  |
|   \\  /    A nd           | Website:  www.openfoam.com                      |
|    \\/     M anipulation  |                                                 |
\*---------------------------------------------------------------------------*/
FoamFile
{
    version     2.0;
    format      ascii;
    arch        "LSB;label=32;scalar=64";
    class       volVectorField;
    location    "450";
    object      momentError;
}
// * * * * * * * * * * * * * * * * * * * * * * * * * * * * * * * * * * * * * //

dimensions      [0 1 -2 0 0 0 0];

internalField   nonuniform List<vector> 
10720
(
(0.000143189 -0.000402414 -4.16093e-15)
(0.00011973 -0.000436141 -2.46499e-15)
(6.61203e-05 -0.000422224 -2.15845e-14)
(5.21003e-06 -0.000389581 9.99154e-14)
(-2.56882e-05 -0.000372756 7.47323e-14)
(-5.13348e-05 -0.000344797 -1.8512e-13)
(-7.58942e-05 -0.000323554 -1.39561e-13)
(-9.21147e-05 -0.000294381 -1.07605e-13)
(-0.000104541 -0.000264225 2.15489e-14)
(-0.000110461 -0.000228908 5.47612e-15)
(-0.000108315 -0.000193127 -1.55953e-14)
(-9.16406e-05 -0.000135249 6.73759e-14)
(-7.68425e-05 -9.83506e-05 -2.19364e-13)
(-5.88574e-05 -6.71862e-05 -4.01235e-13)
(-3.20715e-05 -3.6462e-05 7.43284e-14)
(-1.80275e-06 -9.24653e-06 -1.06086e-13)
(1.75103e-05 5.19759e-06 1.15543e-13)
(9.51338e-05 3.46905e-05 8.86574e-13)
(0.000135868 0.000108949 2.34707e-13)
(0.000383137 0.000206944 -4.66659e-13)
(0.000845055 9.37939e-05 -2.31245e-13)
(0.000206096 -0.000147846 9.58759e-14)
(-0.00923226 -0.00133125 3.38084e-13)
(-0.0119868 -0.00268999 -2.47227e-13)
(0.00831639 3.61624e-05 4.59053e-14)
(0.017354 0.00368947 -4.01698e-14)
(0.00618183 0.00399227 -6.94577e-14)
(-0.00190804 0.00201048 1.31264e-14)
(-0.00349915 0.000103157 1.00902e-14)
(-0.00433443 -0.000661225 2.09893e-13)
(-0.00285828 -0.000483336 1.5502e-13)
(-0.000828324 -0.000167787 -1.77286e-13)
(0.000231125 -4.1942e-05 -1.33399e-13)
(0.000174252 1.97714e-05 -2.39304e-13)
(2.24716e-05 0.00014396 -1.59709e-13)
(-0.00047739 0.00132975 1.54552e-13)
(0.00120367 0.0115176 -1.08651e-14)
(0.0534337 0.0720357 -5.80166e-16)
(1.09187 -0.120317 -6.35213e-14)
(0.000166938 -0.000382353 8.10913e-15)
(0.000168283 -0.000300577 -2.00083e-14)
(0.000177151 -0.000214432 2.29203e-14)
(0.000155881 -0.000118197 1.04293e-13)
(0.000138422 -5.1848e-05 3.60746e-14)
(5.55234e-05 6.51032e-05 -2.84893e-13)
(4.36537e-06 0.000103784 -1.55795e-13)
(-9.30918e-05 0.000182236 1.61066e-13)
(-0.000106456 9.85291e-05 -6.3756e-14)
(-5.49648e-05 2.5704e-05 5.91478e-14)
(-4.97789e-06 -3.53895e-05 -8.07544e-14)
(5.09462e-05 -6.05428e-05 -1.38034e-13)
(7.25738e-05 -6.04004e-05 3.60444e-14)
(8.38101e-05 -5.40658e-05 7.11214e-14)
(8.58147e-05 -4.52919e-05 -1.17393e-13)
(8.32832e-05 -3.72115e-05 -1.01456e-13)
(7.89207e-05 -3.0554e-05 -7.23976e-14)
(7.38429e-05 -2.52959e-05 -8.85835e-14)
(6.88433e-05 -2.12939e-05 -3.26375e-14)
(6.41375e-05 -1.81376e-05 -2.83421e-15)
(5.9811e-05 -1.58484e-05 3.10518e-14)
(5.60171e-05 -1.39651e-05 6.26777e-14)
(5.28995e-05 -1.29115e-05 -2.99156e-14)
(5.17955e-05 -1.19326e-05 -2.12858e-14)
(5.22402e-05 -1.0398e-05 2.58181e-14)
(5.25263e-05 -8.52359e-06 -4.02068e-15)
(5.26219e-05 -6.70195e-06 -9.91176e-16)
(5.19915e-05 -5.90162e-06 -2.05139e-15)
(5.05868e-05 -4.71946e-06 4.71608e-16)
(4.90136e-05 -4.16863e-06 1.09782e-16)
(4.96419e-05 -2.2239e-06 4.97761e-16)
(5.72268e-05 -7.4663e-07 -1.32946e-15)
(7.45392e-05 2.33444e-06 -2.52115e-15)
(9.52381e-05 7.66359e-06 -4.07179e-15)
(4.85116e-05 3.34455e-06 -5.36048e-15)
(0.000137235 5.38399e-06 -2.34905e-15)
(0.000231296 1.10924e-07 1.28092e-14)
(0.000410057 -0.000160302 -3.38246e-15)
(0.00191679 -0.00152849 -5.83476e-14)
(0.000124236 -0.000362626 -3.87953e-15)
(0.000100834 -0.000392898 2.20516e-15)
(6.87167e-05 -0.000381024 -2.05052e-17)
(8.35498e-06 -0.000353998 -7.55921e-15)
(-2.71218e-05 -0.000330495 9.99722e-15)
(-5.2205e-05 -0.000312559 6.71978e-14)
(-8.1596e-05 -0.000292724 8.02701e-14)
(-0.00010211 -0.000268406 2.64618e-14)
(-0.000118051 -0.000243843 -8.61514e-14)
(-0.000128476 -0.000212715 -4.18872e-14)
(-0.000129159 -0.000176043 -2.56347e-13)
(-0.000130323 -0.000161644 -4.7214e-13)
(-0.000120063 -0.000129897 -2.36367e-14)
(-0.000107528 -9.87197e-05 -2.07029e-14)
(-7.16338e-05 -8.44671e-05 -8.27852e-14)
(-3.85678e-05 -7.02015e-05 8.65153e-14)
(-4.20341e-05 -4.59159e-05 3.88937e-13)
(0.000178375 -8.37349e-05 -6.8735e-13)
(0.000629928 -0.0002692 -5.72201e-13)
(0.0067258 -0.00181027 -3.58388e-13)
(-0.00117431 0.00104192 2.15291e-13)
(-0.00733107 0.000390107 2.96336e-13)
(0.00944899 -0.0019911 -3.85774e-13)
(0.0649712 0.00679525 5.93688e-14)
(0.0550992 0.0129529 -2.10289e-15)
(-0.0167775 0.00643964 -1.16393e-14)
(-0.0466213 -0.000400879 -4.08216e-15)
(-0.0137865 -0.000723064 1.23254e-14)
(0.00514962 -0.000290382 -2.74882e-14)
(-0.00350204 -0.00122943 -1.02189e-14)
(-0.00501041 -0.00115919 9.33968e-15)
(-0.00224392 -0.000389095 -5.55369e-15)
(-0.000648783 4.0373e-05 -1.14721e-13)
(0.000232956 8.92998e-05 -7.19282e-14)
(3.95739e-05 0.000126444 1.60271e-13)
(-0.000507626 0.000414823 2.84535e-14)
(-0.000916023 0.00219694 6.35434e-14)
(-0.0313346 0.0141586 -1.17532e-14)
(-0.891986 0.108543 -3.26029e-14)
(0.000144621 -0.000333106 -1.63937e-14)
(0.000168375 -0.000272716 1.50208e-13)
(0.00018354 -0.00019342 -4.7148e-14)
(0.000183877 -0.000115996 -1.15849e-13)
(0.000165743 -3.90336e-05 8.28568e-14)
(0.000123117 3.44636e-05 6.69343e-14)
(7.76955e-05 7.84623e-05 2.90911e-14)
(1.51828e-05 0.000100627 1.54085e-13)
(-1.96777e-05 4.63619e-05 -2.99418e-15)
(-9.49926e-06 -6.17544e-06 -4.39996e-14)
(1.58333e-05 -4.49866e-05 7.29925e-14)
(4.7779e-05 -5.86095e-05 -9.49627e-14)
(6.70426e-05 -5.78035e-05 1.99597e-14)
(7.80606e-05 -5.12244e-05 1.04082e-14)
(8.19485e-05 -4.27767e-05 2.46884e-14)
(8.10503e-05 -3.50955e-05 2.76952e-14)
(7.79157e-05 -2.8813e-05 4.69669e-14)
(7.35308e-05 -2.40078e-05 -1.40527e-14)
(6.8923e-05 -2.04181e-05 3.03486e-15)
(6.4301e-05 -1.7859e-05 -7.0188e-15)
(6.00942e-05 -1.58138e-05 1.82707e-14)
(5.62529e-05 -1.43834e-05 5.3008e-14)
(5.32895e-05 -1.33826e-05 -8.8593e-16)
(5.18644e-05 -1.31185e-05 -1.76477e-14)
(5.20542e-05 -1.18146e-05 -1.49692e-14)
(5.23315e-05 -9.94989e-06 2.14085e-14)
(5.26383e-05 -7.93185e-06 6.15478e-15)
(5.2717e-05 -5.79264e-06 -1.60836e-15)
(5.16481e-05 -3.6038e-06 4.65889e-17)
(5.07375e-05 -1.55167e-06 -1.06152e-16)
(5.29636e-05 -1.50139e-06 -1.99659e-16)
(5.60145e-05 5.26704e-07 -4.30314e-16)
(5.45878e-05 1.79976e-06 2.17602e-15)
(2.87795e-05 5.07412e-06 2.41699e-15)
(6.90017e-05 1.31851e-05 2.74979e-15)
(0.000102935 1.90812e-05 -7.42687e-15)
(0.000102234 1.17317e-05 7.85576e-16)
(0.000114839 -6.63115e-06 1.33749e-14)
(0.00141663 0.000175564 1.57995e-14)
(0.000107072 -0.000318394 2.1028e-15)
(8.9155e-05 -0.000341327 -1.43476e-15)
(5.86741e-05 -0.000327169 -2.6274e-15)
(1.25165e-05 -0.000310012 1.35776e-15)
(-1.25815e-05 -0.000290865 5.77422e-14)
(-3.42628e-05 -0.000279719 -6.42716e-14)
(-5.35815e-05 -0.000265526 -8.81758e-14)
(-6.77074e-05 -0.000250562 1.60613e-13)
(-7.91446e-05 -0.000232261 6.56111e-14)
(-8.64125e-05 -0.000209273 8.8835e-14)
(-8.76718e-05 -0.000181865 2.04931e-14)
(-8.40098e-05 -0.000153653 -7.65938e-16)
(-7.49614e-05 -0.000125759 3.55632e-13)
(-5.84655e-05 -0.00010187 1.2017e-14)
(-5.55129e-05 -7.29047e-05 2.16429e-13)
(-5.09304e-05 -5.61188e-05 1.204e-15)
(2.30494e-06 -3.90532e-05 -6.83819e-13)
(-0.000119262 0.000170674 4.11915e-13)
(-0.000788938 0.0014877 9.19855e-13)
(-0.00493412 0.00376719 1.65782e-13)
(0.00223743 -0.00269308 -2.66398e-14)
(0.000872673 -0.00327818 -6.79698e-14)
(0.00187465 -0.00384512 1.6498e-13)
(-0.0150994 -0.00811493 1.19041e-13)
(-0.0476429 -0.00944531 -9.77467e-14)
(-0.0664699 -0.0104398 -2.18947e-14)
(-0.00892743 -0.000165546 -5.62649e-14)
(0.0145275 0.00257179 3.08534e-14)
(-0.00329974 0.000371443 -2.82649e-14)
(0.00286854 -0.00208146 -1.5626e-13)
(0.00626134 -0.00143871 -7.80002e-15)
(0.00169466 -0.000138149 2.37317e-13)
(-0.0018221 0.000466413 3.59826e-14)
(-0.00126477 0.00052459 1.12193e-13)
(-0.000850871 0.000349464 1.33278e-13)
(-0.000938894 0.000329844 2.20501e-14)
(-0.00220426 0.00115736 -8.48628e-14)
(-0.0154725 0.00182305 8.48842e-15)
(-0.112253 0.00952554 1.56884e-14)
(0.000131384 -0.000288687 2.43134e-14)
(0.000148538 -0.000238847 -3.70471e-14)
(0.000162203 -0.000172185 -4.65105e-14)
(0.00016364 -0.000111433 -1.31007e-14)
(0.000151951 -5.15915e-05 1.1287e-14)
(0.000128454 1.37654e-06 -1.20767e-13)
(9.92149e-05 3.79987e-05 2.34738e-14)
(5.81437e-05 4.47455e-05 -1.49195e-13)
(3.00968e-05 1.28784e-05 -1.2496e-13)
(2.59726e-05 -1.87029e-05 -1.15754e-13)
(3.81214e-05 -4.19818e-05 1.18262e-13)
(5.53259e-05 -5.15526e-05 1.03767e-13)
(6.84809e-05 -5.19238e-05 -6.46439e-14)
(7.66426e-05 -4.74396e-05 -1.48448e-13)
(7.98949e-05 -4.11887e-05 4.05276e-14)
(7.93424e-05 -3.48866e-05 6.98168e-14)
(7.66656e-05 -2.9509e-05 -1.89662e-14)
(7.27484e-05 -2.52036e-05 -9.26359e-14)
(6.84184e-05 -2.18413e-05 -2.68353e-14)
(6.40179e-05 -1.92061e-05 2.52984e-15)
(5.99156e-05 -1.72029e-05 -2.07011e-14)
(5.61374e-05 -1.57762e-05 -4.13921e-14)
(5.31449e-05 -1.50505e-05 9.12869e-15)
(5.15629e-05 -1.45179e-05 -6.39723e-16)
(5.14602e-05 -1.29753e-05 2.87547e-15)
(5.15391e-05 -1.09129e-05 -9.68789e-15)
(5.14147e-05 -8.8685e-06 -1.78536e-14)
(5.11115e-05 -7.11191e-06 3.97406e-15)
(5.01826e-05 -5.23508e-06 7.53502e-16)
(4.93706e-05 -4.43385e-06 -1.71267e-16)
(5.05952e-05 -2.36099e-06 1.19201e-16)
(5.54199e-05 -1.46173e-06 4.71096e-16)
(6.31803e-05 -1.70391e-06 -7.56669e-16)
(5.76913e-05 -4.62765e-06 -1.43212e-15)
(2.16814e-05 3.66004e-07 6.4195e-16)
(1.1626e-05 5.73136e-05 -1.15874e-15)
(0.000145003 8.0392e-05 8.75059e-15)
(0.000272032 1.56821e-05 8.12853e-15)
(0.00111121 0.000183913 -8.31863e-14)
(9.47463e-05 -0.000277097 1.05194e-14)
(7.66258e-05 -0.000299425 2.79078e-15)
(5.25103e-05 -0.000289758 1.0752e-15)
(1.52615e-05 -0.000280821 -6.51952e-15)
(-7.08655e-06 -0.000266429 1.03414e-15)
(-2.81866e-05 -0.000259761 -1.45221e-14)
(-4.57774e-05 -0.000250768 1.04186e-13)
(-5.96459e-05 -0.000236832 3.08576e-14)
(-7.10075e-05 -0.00022067 -2.52685e-13)
(-7.86675e-05 -0.000199928 8.50902e-14)
(-8.08859e-05 -0.000174571 2.72084e-13)
(-7.89446e-05 -0.000148941 3.41575e-13)
(-7.1635e-05 -0.000123735 7.87847e-14)
(-6.12028e-05 -0.000101064 -3.85238e-13)
(-4.99928e-05 -8.11354e-05 -9.78807e-14)
(-1.74068e-05 -8.13486e-05 -9.90238e-14)
(9.79185e-07 -5.36263e-05 -1.7903e-13)
(5.00477e-05 -0.000112462 -3.6212e-13)
(0.000144711 -0.000306324 -6.29134e-13)
(-0.000477591 -0.00242105 1.5905e-13)
(0.000941534 0.000906448 -1.26907e-13)
(0.00265259 0.0012107 -1.78369e-13)
(0.000328041 -0.000703807 2.34447e-15)
(0.000577054 0.0014375 -2.52323e-13)
(0.00304342 -0.00111041 -4.64086e-14)
(-0.0255774 0.0129152 4.40452e-14)
(-0.0383282 0.00898822 5.28113e-14)
(-0.0594103 0.00433729 -2.40862e-14)
(0.0267843 -0.00191729 3.35068e-14)
(0.0247545 0.00277701 6.48155e-14)
(0.0385457 -0.00275452 -5.63541e-14)
(0.0032789 0.00138258 1.21458e-14)
(-0.00441426 0.000851339 1.77475e-13)
(-0.00441956 0.00110387 8.07675e-14)
(-0.00217068 0.00065 -3.26411e-14)
(-0.000869732 0.000315368 -1.08669e-13)
(-0.000803447 0.000486893 -2.72135e-14)
(-0.00558818 -0.000499904 -1.97169e-14)
(-0.0325362 0.00876541 5.50576e-14)
(0.00011708 -0.000251273 -1.74213e-15)
(0.000134681 -0.000212103 -3.89806e-14)
(0.000146395 -0.000157711 -3.45707e-14)
(0.000147838 -0.000108958 -2.81679e-14)
(0.000139715 -6.09781e-05 1.13971e-13)
(0.000124696 -1.95333e-05 2.05742e-13)
(0.0001015 1.08055e-05 1.17494e-14)
(7.11338e-05 1.50069e-05 1.41483e-13)
(5.5437e-05 -5.98817e-06 5.35993e-16)
(4.88328e-05 -2.51308e-05 -3.11184e-14)
(5.38948e-05 -4.04028e-05 -9.01097e-14)
(6.24688e-05 -4.74747e-05 -2.9812e-14)
(7.05602e-05 -4.83779e-05 -1.54225e-14)
(7.60768e-05 -4.52229e-05 7.44052e-14)
(7.84441e-05 -4.02014e-05 -3.90149e-14)
(7.79547e-05 -3.47594e-05 -1.3229e-13)
(7.56742e-05 -2.97493e-05 -1.6807e-14)
(7.21485e-05 -2.54653e-05 8.63532e-14)
(6.81178e-05 -2.20662e-05 -2.61241e-15)
(6.39241e-05 -1.93317e-05 -2.43509e-14)
(5.99625e-05 -1.72492e-05 -6.56388e-14)
(5.62999e-05 -1.56696e-05 2.67982e-14)
(5.33536e-05 -1.47912e-05 3.52151e-14)
(5.16736e-05 -1.41332e-05 -6.07082e-15)
(5.13377e-05 -1.27102e-05 -2.76234e-15)
(5.1358e-05 -1.07562e-05 6.02181e-15)
(5.1204e-05 -8.78383e-06 8.6596e-15)
(5.08302e-05 -6.93511e-06 -2.03036e-15)
(4.98493e-05 -5.02637e-06 -7.46301e-16)
(4.90712e-05 -3.89694e-06 1.85027e-16)
(4.98516e-05 -4.0297e-06 -1.01386e-16)
(5.5293e-05 -2.05913e-06 -1.65243e-16)
(7.22512e-05 3.19026e-05 6.50885e-17)
(0.000161231 0.000358684 -2.61881e-16)
(0.00067362 0.0020161 -2.03396e-15)
(0.00100311 0.00293729 1.47262e-14)
(-0.000166561 -0.00161377 -2.21205e-14)
(0.000147572 -0.000252208 -5.54715e-14)
(0.00103307 0.000230947 -3.03431e-14)
(8.57992e-05 -0.000245686 -8.9277e-15)
(6.91654e-05 -0.000263711 4.80226e-15)
(4.81919e-05 -0.000258323 4.18998e-15)
(1.86631e-05 -0.000254218 -1.73959e-14)
(-2.0987e-06 -0.000244283 -1.48374e-14)
(-2.03177e-05 -0.00024087 3.52271e-14)
(-3.63823e-05 -0.00023382 -1.29234e-14)
(-4.89704e-05 -0.000221418 1.36912e-14)
(-5.91207e-05 -0.000207434 -9.40589e-14)
(-6.55779e-05 -0.000188867 -2.87264e-13)
(-6.75463e-05 -0.000166718 -1.03063e-14)
(-6.58379e-05 -0.000144629 -1.25278e-13)
(-5.94933e-05 -0.000123423 -8.11742e-14)
(-4.93879e-05 -0.000105541 -1.43819e-14)
(-3.51352e-05 -9.30536e-05 -3.30096e-13)
(-2.40317e-05 -8.04828e-05 2.99775e-13)
(-8.38341e-06 -6.56279e-05 1.71946e-13)
(1.49235e-05 -4.47838e-05 -3.86694e-13)
(6.0085e-05 -3.68405e-05 1.22221e-13)
(5.9552e-05 -5.22562e-05 -2.00975e-13)
(0.000371272 7.02836e-06 -1.3952e-13)
(1.62331e-05 -0.000280299 2.51197e-13)
(-0.000736385 -0.000886869 6.09152e-15)
(0.00164866 -0.000165898 2.21508e-13)
(0.0060618 0.00224069 1.01111e-13)
(0.0484339 -0.00255023 -2.04895e-14)
(0.0272348 -0.00374788 6.24694e-15)
(0.0284991 -0.00919784 2.47302e-14)
(-0.0167085 -0.00742277 -3.01238e-14)
(-0.0118144 0.00226962 -5.40485e-14)
(0.0145145 0.0062375 2.18253e-14)
(0.00144056 -0.000203662 -5.27649e-14)
(3.63038e-05 0.00118104 -4.00069e-14)
(-0.00784841 0.00106503 -1.49117e-13)
(-0.00538825 0.000685557 -2.39497e-13)
(-0.00216824 0.000227896 4.13587e-14)
(-4.01063e-05 0.000148905 -1.05413e-14)
(-0.00246394 -0.00101925 -9.33271e-15)
(-0.0190858 0.00902054 -1.94191e-14)
(0.000102621 -0.000222477 2.0044e-14)
(0.000118555 -0.000190277 3.82119e-14)
(0.00012836 -0.000145976 -5.04889e-14)
(0.000130509 -0.000105465 -1.94964e-14)
(0.000125564 -6.6369e-05 7.47184e-14)
(0.000115686 -3.23359e-05 -1.50772e-13)
(9.93928e-05 -9.8831e-06 -9.96702e-14)
(7.91216e-05 -7.16383e-06 2.05194e-13)
(6.81753e-05 -1.91442e-05 1.92426e-13)
(6.28652e-05 -3.03134e-05 -8.41538e-15)
(6.44973e-05 -3.95435e-05 -5.58727e-14)
(6.86705e-05 -4.40387e-05 -3.47738e-14)
(7.31875e-05 -4.45123e-05 1.17142e-13)
(7.65441e-05 -4.20043e-05 -5.81125e-14)
(7.79265e-05 -3.78673e-05 -1.3047e-14)
(7.71838e-05 -3.31198e-05 9.83206e-14)
(7.50421e-05 -2.86681e-05 -4.44031e-14)
(7.17271e-05 -2.46357e-05 4.07387e-14)
(6.7938e-05 -2.13351e-05 2.43684e-14)
(6.38854e-05 -1.86523e-05 4.24638e-15)
(6.00152e-05 -1.66998e-05 6.83439e-14)
(5.64151e-05 -1.52015e-05 -2.5625e-14)
(5.34629e-05 -1.43865e-05 -4.77242e-14)
(5.1621e-05 -1.36884e-05 -7.62214e-15)
(5.10626e-05 -1.23684e-05 1.90809e-14)
(5.09758e-05 -1.03886e-05 6.49157e-16)
(5.08313e-05 -8.2733e-06 9.25369e-15)
(5.04672e-05 -6.26827e-06 -1.73581e-15)
(4.95662e-05 -4.30844e-06 1.12332e-16)
(4.88566e-05 -3.14086e-06 -2.76183e-16)
(4.97744e-05 -1.08109e-06 -5.072e-16)
(5.5593e-05 7.73505e-07 4.13817e-17)
(6.4433e-05 -4.68998e-05 3.85153e-17)
(4.9503e-05 -0.0005409 4.80116e-16)
(-0.000115156 -0.00293548 -1.40221e-15)
(-0.000193473 -0.00388856 5.33902e-15)
(6.40504e-05 0.00228206 1.75395e-15)
(0.000178355 0.000267463 -1.14606e-14)
(0.000845015 4.59525e-05 4.31222e-14)
(7.5006e-05 -0.000219656 2.18001e-15)
(6.06528e-05 -0.000234286 -4.30829e-16)
(4.21088e-05 -0.000231835 2.42882e-15)
(1.77001e-05 -0.000232569 -3.3511e-15)
(-1.70376e-06 -0.000225611 1.12897e-14)
(-1.85561e-05 -0.000223464 -1.4962e-15)
(-3.36528e-05 -0.00021772 -4.20211e-14)
(-4.56745e-05 -0.000206137 7.85319e-14)
(-5.53696e-05 -0.000193313 1.69724e-13)
(-6.14635e-05 -0.000176222 -1.05787e-13)
(-6.34307e-05 -0.000156248 -1.08078e-13)
(-6.19723e-05 -0.000136704 6.48633e-14)
(-5.67662e-05 -0.000118249 -1.49791e-13)
(-4.81866e-05 -0.000102837 -2.84999e-14)
(-3.72258e-05 -9.14112e-05 -4.61246e-14)
(-2.55283e-05 -8.21949e-05 1.98241e-14)
(-1.7121e-06 -8.62841e-05 4.02797e-14)
(3.32719e-05 -9.55655e-05 4.46982e-13)
(8.44814e-05 -0.000128683 3.53053e-13)
(0.000148919 -0.000217281 -1.57619e-13)
(0.000246097 -0.00037678 2.26013e-13)
(0.000223041 -0.000886697 1.87446e-14)
(-0.000521488 -0.00182674 -5.70802e-14)
(-0.00155398 -0.00142735 -1.18266e-13)
(-0.00122368 0.00119538 9.30094e-15)
(0.000835394 0.00299399 3.23161e-14)
(0.00804367 0.0002302 4.00188e-14)
(0.00223583 -0.00329311 -3.78618e-14)
(-0.00896248 -0.00364189 9.84029e-15)
(0.0156486 -0.00472494 7.59874e-14)
(-0.0228536 0.00341124 -2.97415e-14)
(0.00595655 0.00113669 -1.67235e-13)
(0.00217364 0.00117692 -8.93915e-14)
(-0.000183468 0.000332634 -6.14261e-14)
(-0.00337563 4.87283e-05 6.35084e-14)
(-0.00193078 -0.000577007 5.72894e-14)
(0.000277506 6.50226e-05 5.81246e-14)
(-0.00176012 -0.00101991 6.38953e-14)
(-0.0159564 0.00952341 -1.02316e-15)
(9.03155e-05 -0.000199549 -9.13894e-15)
(0.000104232 -0.000172564 -1.05374e-14)
(0.000112969 -0.000135834 2.56521e-15)
(0.00011567 -0.000101452 3.37494e-14)
(0.00011311 -6.88302e-05 2.23687e-14)
(0.000106971 -4.10739e-05 -1.94164e-13)
(9.54833e-05 -2.42502e-05 -1.16773e-13)
(8.26019e-05 -2.18549e-05 -1.8451e-13)
(7.51956e-05 -2.80911e-05 2.24461e-14)
(7.12685e-05 -3.42157e-05 2.06536e-14)
(7.13886e-05 -3.922e-05 -5.19208e-14)
(7.32627e-05 -4.16035e-05 4.96175e-15)
(7.54685e-05 -4.1392e-05 -2.45833e-14)
(7.71843e-05 -3.9129e-05 -4.58442e-14)
(7.76392e-05 -3.56295e-05 -1.42142e-13)
(7.65757e-05 -3.14857e-05 -1.19728e-14)
(7.44352e-05 -2.74473e-05 8.63151e-14)
(7.12956e-05 -2.36981e-05 -1.33704e-14)
(6.76917e-05 -2.05409e-05 1.66974e-14)
(6.38123e-05 -1.7947e-05 -3.05233e-14)
(6.00602e-05 -1.59942e-05 -4.6858e-14)
(5.65332e-05 -1.45727e-05 -4.23001e-15)
(5.36064e-05 -1.36995e-05 1.76736e-14)
(5.16325e-05 -1.29248e-05 1.90788e-14)
(5.08731e-05 -1.16436e-05 -5.8535e-16)
(5.06777e-05 -9.82901e-06 -1.00549e-14)
(5.0526e-05 -7.75608e-06 -1.69474e-14)
(5.01763e-05 -5.83209e-06 3.28144e-15)
(4.93644e-05 -3.93861e-06 -1.92984e-16)
(4.8718e-05 -3.02828e-06 3.04078e-16)
(4.94467e-05 -2.23907e-06 4.8297e-16)
(5.41382e-05 6.68862e-07 -4.1374e-17)
(5.61213e-05 1.91925e-05 2.04892e-16)
(3.98959e-07 0.000160274 -9.88398e-16)
(-0.000261552 0.000922871 3.28007e-16)
(-0.000361218 0.000972348 -1.44417e-14)
(0.000520412 -0.000793181 2.26619e-14)
(0.000292476 1.45938e-06 5.78841e-14)
(0.00112196 -0.00032848 -2.15306e-14)
(6.47291e-05 -0.000197552 9.78895e-16)
(5.23059e-05 -0.000211072 -2.75262e-16)
(3.71756e-05 -0.00020991 6.46597e-16)
(1.62646e-05 -0.000213607 3.38154e-15)
(-1.33305e-06 -0.000208558 -9.01442e-15)
(-1.66552e-05 -0.000207443 -1.90842e-14)
(-3.05943e-05 -0.000202219 4.5521e-14)
(-4.18238e-05 -0.000192117 -8.91919e-15)
(-5.07821e-05 -0.000180609 5.05044e-14)
(-5.61909e-05 -0.000165369 1.03017e-13)
(-5.78448e-05 -0.00014788 2.22671e-14)
(-5.6452e-05 -0.000131277 3.44752e-14)
(-5.17064e-05 -0.000116176 2.16523e-13)
(-4.42195e-05 -0.000104016 3.67191e-13)
(-3.43852e-05 -9.5918e-05 3.32829e-13)
(-2.16935e-05 -9.27301e-05 -5.40275e-15)
(-9.18664e-06 -9.02911e-05 4.05361e-13)
(1.10174e-05 -9.37198e-05 2.67816e-14)
(4.41182e-05 -0.000111841 -1.19161e-13)
(7.82398e-05 -0.000168449 1.57427e-13)
(0.000129923 -0.000272742 -2.60851e-13)
(0.000127587 -0.000629112 1.10134e-13)
(-0.000530331 -0.00129408 1.10507e-13)
(-0.00170543 -0.00108083 4.48832e-14)
(-0.00174353 0.000690195 1.20484e-13)
(0.000233001 0.00204868 -4.94968e-14)
(0.00165651 0.00122408 -4.27901e-14)
(0.00181428 -0.0012261 6.31761e-15)
(-0.0007829 -0.00248712 2.63854e-14)
(-0.00516761 -0.00101818 -7.03052e-14)
(-0.00337251 0.000580581 -6.87108e-14)
(0.000778699 0.000941795 1.40189e-13)
(0.00321521 0.000820496 3.15556e-14)
(0.00362832 7.97013e-05 -6.03435e-14)
(0.00260165 -0.000715137 -4.97756e-16)
(0.0223148 -0.00787433 -1.43328e-13)
(-0.00644368 0.0025437 -5.09398e-14)
(-0.00139013 -0.00153015 -1.97428e-14)
(-0.0127195 0.00859945 -3.18964e-14)
(7.95489e-05 -0.000179527 -6.63899e-15)
(9.15262e-05 -0.000157493 -1.26862e-14)
(9.99538e-05 -0.000126157 6.04158e-15)
(0.000103229 -9.66463e-05 8.31816e-14)
(0.000102884 -6.90465e-05 3.54649e-14)
(9.78354e-05 -4.50961e-05 7.07865e-16)
(8.92923e-05 -3.23393e-05 1.82773e-13)
(8.27782e-05 -3.1499e-05 -8.38918e-14)
(7.83325e-05 -3.4129e-05 -1.35035e-13)
(7.59209e-05 -3.70276e-05 4.91428e-14)
(7.56514e-05 -3.90813e-05 9.80662e-14)
(7.63437e-05 -3.97953e-05 -2.41897e-14)
(7.72009e-05 -3.88384e-05 6.85659e-14)
(7.77794e-05 -3.65907e-05 9.30815e-15)
(7.75055e-05 -3.34218e-05 3.53118e-14)
(7.60972e-05 -2.97772e-05 1.24892e-14)
(7.39034e-05 -2.61319e-05 -3.93439e-14)
(7.08559e-05 -2.27359e-05 3.24361e-14)
(6.73925e-05 -1.97914e-05 -2.44822e-14)
(6.36652e-05 -1.73643e-05 4.50141e-15)
(6.00319e-05 -1.54507e-05 6.51072e-14)
(5.65834e-05 -1.40678e-05 -2.25277e-14)
(5.36678e-05 -1.31335e-05 -3.04273e-14)
(5.15814e-05 -1.23018e-05 6.58054e-15)
(5.06231e-05 -1.10404e-05 -1.6334e-15)
(5.03126e-05 -9.32174e-06 2.98724e-15)
(5.01229e-05 -7.30872e-06 8.56722e-15)
(4.98022e-05 -5.29041e-06 -1.47178e-15)
(4.90642e-05 -3.40258e-06 -1.40863e-16)
(4.84672e-05 -2.31809e-06 1.95109e-16)
(4.90103e-05 -1.3436e-06 1.44001e-15)
(5.38662e-05 -1.72139e-08 1.80594e-16)
(6.20979e-05 1.68543e-06 -9.87283e-16)
(5.67789e-05 -1.60855e-06 -1.77732e-16)
(5.70709e-05 -3.18595e-05 -4.2834e-16)
(0.000172285 9.3027e-05 4.32513e-15)
(0.000207084 0.000154234 -8.98284e-15)
(0.000148197 2.05308e-05 -1.42495e-14)
(0.000571544 0.000362983 -5.2812e-14)
(5.82042e-05 -0.000178308 2.71827e-15)
(4.63346e-05 -0.000191644 -3.05072e-15)
(3.2252e-05 -0.000192449 -6.566e-17)
(1.40032e-05 -0.000196722 2.66471e-15)
(-2.24807e-06 -0.00019343 -2.03464e-15)
(-1.6384e-05 -0.000192169 2.54472e-15)
(-2.91543e-05 -0.000187895 8.7327e-15)
(-3.96528e-05 -0.000178951 -1.09189e-13)
(-4.79809e-05 -0.000168699 -1.46971e-14)
(-5.29754e-05 -0.000155205 1.70477e-13)
(-5.44323e-05 -0.000139778 -7.21106e-14)
(-5.32609e-05 -0.000125767 -1.53075e-13)
(-4.91398e-05 -0.000113276 -2.98874e-13)
(-4.28934e-05 -0.000103618 -2.46504e-13)
(-3.45513e-05 -9.77752e-05 -1.6944e-13)
(-2.43217e-05 -9.55959e-05 -6.17303e-14)
(-1.32211e-05 -9.75635e-05 -2.26995e-13)
(6.64583e-06 -0.000114451 -3.15547e-13)
(3.55748e-05 -0.000146577 -1.3907e-13)
(5.96256e-05 -0.000211066 3.57506e-13)
(8.33564e-05 -0.000311933 3.28292e-13)
(3.59821e-05 -0.000579195 -2.15568e-14)
(-0.000431595 -0.000993511 -5.0457e-14)
(-0.00123131 -0.00074053 -1.5941e-13)
(-0.00122977 0.000607369 -9.28598e-14)
(8.53469e-05 0.00161484 4.27694e-14)
(0.00164286 0.000884449 3.30659e-14)
(0.00205388 -0.000835443 3.72116e-15)
(0.00059252 -0.0016795 -1.98421e-14)
(-0.00103387 -0.00110961 7.40312e-14)
(-0.00220205 9.65084e-05 1.54706e-13)
(-0.0010069 0.000771887 -1.04817e-14)
(0.000647074 0.000769921 2.72359e-14)
(0.00185158 0.0004587 4.73938e-14)
(0.0010175 0.00192652 -1.85024e-14)
(-0.0147106 0.00187841 1.74085e-13)
(-0.003821 -0.00162396 7.94543e-14)
(-0.000878471 -0.00201417 -6.39989e-14)
(-0.00794422 0.00673993 -1.89368e-14)
(7.00433e-05 -0.000163112 1.65633e-14)
(8.12791e-05 -0.00014413 2.03053e-14)
(8.88476e-05 -0.000117195 8.21886e-15)
(9.25763e-05 -9.15904e-05 9.77e-14)
(9.34133e-05 -6.78116e-05 -1.73046e-13)
(8.99084e-05 -4.82619e-05 8.97389e-14)
(8.41484e-05 -3.83204e-05 1.5156e-13)
(8.1249e-05 -3.76777e-05 6.6242e-14)
(7.91566e-05 -3.81653e-05 -3.67948e-14)
(7.80443e-05 -3.87852e-05 -3.43624e-14)
(7.79308e-05 -3.89343e-05 2.17045e-14)
(7.81774e-05 -3.8322e-05 3.71884e-14)
(7.83044e-05 -3.6702e-05 -8.99178e-14)
(7.81809e-05 -3.43292e-05 6.45166e-14)
(7.73836e-05 -3.13623e-05 1.64818e-14)
(7.57142e-05 -2.803e-05 -1.11059e-14)
(7.34362e-05 -2.47574e-05 -5.77501e-14)
(7.0457e-05 -2.1639e-05 -5.77495e-14)
(6.71032e-05 -1.8893e-05 4.89963e-14)
(6.35102e-05 -1.65811e-05 1.42858e-14)
(5.99773e-05 -1.47508e-05 4.90985e-15)
(5.66125e-05 -1.33653e-05 5.15997e-14)
(5.36935e-05 -1.23745e-05 2.09199e-14)
(5.15159e-05 -1.14571e-05 -2.44623e-15)
(5.03887e-05 -1.02627e-05 6.82629e-15)
(4.99591e-05 -8.63795e-06 -4.74814e-15)
(4.97233e-05 -6.74954e-06 -9.33761e-15)
(4.943e-05 -4.74233e-06 1.3702e-15)
(4.87669e-05 -2.92479e-06 -1.20137e-15)
(4.82286e-05 -1.72274e-06 -4.10699e-16)
(4.8705e-05 -7.20694e-07 -1.06084e-15)
(5.34647e-05 1.09768e-06 1.15092e-15)
(6.20742e-05 4.54489e-06 2.8617e-15)
(5.68791e-05 7.94266e-06 2.42082e-15)
(5.05543e-05 1.83568e-05 1.3851e-15)
(0.00011041 4.88369e-05 -5.26342e-15)
(0.000154998 5.59246e-05 3.20921e-15)
(0.000149683 8.5296e-05 3.60464e-14)
(0.000182538 0.000583701 4.11098e-14)
(5.19489e-05 -0.000163515 7.45409e-16)
(4.16537e-05 -0.000174582 1.78231e-15)
(2.83924e-05 -0.00017633 -2.56841e-15)
(1.20441e-05 -0.000182036 3.64671e-15)
(-3.41583e-06 -0.000179144 -7.18439e-15)
(-1.63172e-05 -0.000178164 1.08664e-14)
(-2.80569e-05 -0.000174814 -1.31811e-14)
(-3.79372e-05 -0.000166907 -2.47125e-14)
(-4.56293e-05 -0.000157819 -3.28608e-14)
(-5.02738e-05 -0.000145917 -4.6514e-14)
(-5.16961e-05 -0.000132446 1.86694e-14)
(-5.08226e-05 -0.00012062 1.77961e-13)
(-4.73912e-05 -0.000110479 2.41112e-13)
(-4.21987e-05 -0.000103035 3.87508e-14)
(-3.53763e-05 -9.91934e-05 4.9163e-15)
(-2.67274e-05 -9.90311e-05 1.13683e-14)
(-1.70459e-05 -0.000104396 -4.0534e-14)
(-6.6367e-06 -0.000115935 1.28419e-13)
(1.01147e-05 -0.0001445 1.17378e-13)
(2.19623e-05 -0.000198588 -2.70504e-13)
(1.96227e-05 -0.000286528 -2.75395e-14)
(-5.3398e-05 -0.000472134 5.69527e-14)
(-0.000399653 -0.000723686 -7.35859e-14)
(-0.000942955 -0.000499031 7.80083e-14)
(-0.00092403 0.000495096 1.13753e-15)
(6.58675e-05 0.00123735 -1.45172e-14)
(0.00116349 0.000675193 -4.25886e-14)
(0.00110591 -0.000621097 1.75301e-15)
(-6.54523e-05 -0.00120581 -4.28356e-17)
(-0.00123061 -0.000656763 3.50174e-14)
(-0.00156427 0.000235769 1.70218e-14)
(-0.0011128 0.000761692 -7.45395e-14)
(-0.00031414 0.000744219 -3.44023e-14)
(0.000505234 0.000439162 1.72304e-13)
(-4.57558e-05 0.000341778 2.68261e-14)
(-0.00926864 0.00515958 -1.27636e-13)
(0.00632684 -0.00345036 -4.2142e-14)
(0.0139172 -0.0137382 5.03849e-14)
(0.000371195 0.00828167 -1.68907e-15)
(6.26988e-05 -0.000149289 3.43914e-15)
(7.25134e-05 -0.000132472 -4.8742e-14)
(7.92639e-05 -0.000109238 2.41588e-14)
(8.30857e-05 -8.64475e-05 2.13206e-14)
(8.45253e-05 -6.58209e-05 4.61674e-14)
(8.29133e-05 -5.02409e-05 -1.54634e-14)
(7.99817e-05 -4.264e-05 -3.71499e-14)
(7.9083e-05 -4.14312e-05 -3.7874e-15)
(7.85978e-05 -4.06263e-05 -2.6279e-15)
(7.8544e-05 -3.97053e-05 1.39788e-14)
(7.87895e-05 -3.85777e-05 4.0125e-14)
(7.89903e-05 -3.70194e-05 6.60049e-14)
(7.88015e-05 -3.48845e-05 -4.62632e-15)
(7.83294e-05 -3.22984e-05 -1.34747e-13)
(7.71925e-05 -2.94259e-05 2.62857e-14)
(7.53597e-05 -2.63495e-05 7.69864e-14)
(7.30154e-05 -2.33568e-05 5.91137e-14)
(7.00651e-05 -2.04997e-05 2.68665e-14)
(6.68171e-05 -1.79674e-05 -2.22931e-14)
(6.33379e-05 -1.57511e-05 -5.94895e-15)
(5.99077e-05 -1.39961e-05 -2.35505e-14)
(5.66114e-05 -1.26134e-05 -4.32074e-14)
(5.37047e-05 -1.15595e-05 1.77987e-14)
(5.14362e-05 -1.05772e-05 1.67718e-14)
(5.01671e-05 -9.39697e-06 2.99205e-15)
(4.96002e-05 -7.85712e-06 1.69891e-14)
(4.93127e-05 -6.02857e-06 5.94046e-15)
(4.9006e-05 -4.05206e-06 -1.00105e-15)
(4.84231e-05 -2.1855e-06 1.12609e-15)
(4.79429e-05 -9.05631e-07 4.59707e-16)
(4.83585e-05 1.62781e-07 -1.28756e-15)
(5.29627e-05 1.67816e-06 -1.52278e-15)
(6.17289e-05 4.57445e-06 -7.61968e-16)
(5.7204e-05 7.0372e-06 -4.20812e-16)
(5.35735e-05 6.13946e-06 2.76742e-15)
(0.000115065 2.15077e-05 -4.82101e-16)
(0.00016088 4.19322e-05 1.16827e-14)
(0.000173287 6.45721e-05 -1.28358e-14)
(0.000539175 0.00018134 -6.19256e-15)
(4.62499e-05 -0.000149604 3.83317e-15)
(3.67953e-05 -0.000160829 -1.3807e-15)
(2.49753e-05 -0.000162677 -2.60877e-15)
(9.84181e-06 -0.000168183 -3.57699e-15)
(-4.61602e-06 -0.000166145 1.34918e-14)
(-1.65898e-05 -0.000165412 -1.80149e-14)
(-2.74919e-05 -0.000162746 -5.31746e-15)
(-3.68329e-05 -0.000155777 3.49404e-14)
(-4.40485e-05 -0.000147748 1.94606e-14)
(-4.83659e-05 -0.000137169 3.56096e-14)
(-4.98777e-05 -0.000125531 8.00845e-14)
(-4.93244e-05 -0.000115616 6.46418e-14)
(-4.66873e-05 -0.00010738 -1.52414e-13)
(-4.25717e-05 -0.000101692 -2.45573e-13)
(-3.72997e-05 -9.93372e-05 4.2137e-14)
(-3.04673e-05 -0.000100477 3.12379e-13)
(-2.33037e-05 -0.000106089 6.40583e-14)
(-1.60374e-05 -0.000119954 -1.77644e-13)
(-6.47529e-06 -0.000150801 -3.3632e-14)
(-2.46286e-06 -0.000199591 3.07005e-14)
(-2.00353e-05 -0.000274239 -6.90806e-14)
(-0.000100336 -0.000405956 -8.936e-14)
(-0.000367869 -0.000547607 1.02185e-14)
(-0.00075162 -0.00033002 6.91386e-14)
(-0.000723763 0.000426059 6.00084e-14)
(2.66848e-05 0.00099106 -3.41346e-15)
(0.000847719 0.000559635 3.58793e-14)
(0.000751463 -0.000479888 6.43366e-15)
(-0.000196935 -0.000948022 6.16364e-14)
(-0.00100372 -0.0004815 -4.58624e-14)
(-0.00109039 0.000280673 -1.60005e-13)
(-0.00066019 0.000725201 -5.10112e-14)
(-0.000184272 0.000699638 2.84611e-14)
(0.000279371 0.000421935 1.54508e-14)
(0.00059372 8.79736e-05 -4.28826e-15)
(0.00133147 -0.000860783 5.11858e-15)
(0.000452937 0.000794906 1.81626e-14)
(-0.0106623 0.00474228 4.58052e-15)
(-0.00346484 0.00587124 2.44558e-14)
(5.62119e-05 -0.000136824 -8.58977e-15)
(6.46039e-05 -0.000122547 -7.71769e-15)
(7.09521e-05 -0.000101767 -1.34545e-14)
(7.48871e-05 -8.15417e-05 -1.72126e-14)
(7.69881e-05 -6.38574e-05 2.98369e-14)
(7.66765e-05 -5.12336e-05 -4.30609e-14)