/*--------------------------------*- C++ -*----------------------------------*\
| =========                 |                                                 |
| \\      /  F ield         | OpenFOAM: The Open Source CFD Toolbox           |
|  \\    /   O peration     | Version:  2312                                  |
|   \\  /    A nd           | Website:  www.openfoam.com                      |
|    \\/     M anipulation  |                                                 |
\*---------------------------------------------------------------------------*/
FoamFile
{
    version     2.0;
    format      ascii;
    arch        "LSB;label=32;scalar=64";
    class       volScalarField;
    location    "450";
    object      p;
}
// * * * * * * * * * * * * * * * * * * * * * * * * * * * * * * * * * * * * * //

dimensions      [0 2 -2 0 0 0 0];

internalField   nonuniform List<scalar> 
10720
(
-62.2764
-133.563
-217.412
-300.049
-376.41
-454.198
-523.213
-581.157
-631.494
-670.88
-700.868
-722.954
-738.264
-747.524
-750.911
-747.777
-739.03
-723.617
-702.965
-677.137
-649.491
-623.081
-600.477
-573.519
-533.281
-482.202
-429.826
-384.23
-344.987
-308.071
-271.579
-235.418
-199.632
-163.85
-127.669
-90.0574
-51.5564
-6.92095
26.0035
9.09103
74.1325
143.47
208.205
263.523
305.439
330.179
338.464
336.064
323.159
302.13
278.586
255.041
232.257
210.877
190.764
171.975
154.078
136.804
119.661
102.596
85.3013
67.868
50.7084
35.6903
23.8544
14.1399
6.25869
0.3956
-3.484
-5.62841
-6.18584
-5.23899
-2.79411
1.15747
6.96936
15.2156
29.1393
52.8291
43.2084
-10.9462
-71.6185
-136.058
-202.277
-270.052
-335.831
-397.535
-454.482
-504.914
-548.621
-585.609
-615.786
-639.148
-655.513
-664.579
-667.097
-662.952
-653.195
-638.373
-621.133
-603.837
-587.567
-565.162
-528.41
-479.36
-428.215
-383.159
-344.104
-307.267
-270.803
-234.679
-198.966
-163.279
-127.204
-89.6896
-51.2675
-6.61659
25.6939
91.9387
138.39
184.723
229.416
268.801
300.267
320.676
329.369
327.941
317.251
300.069
279.871
258.609
237.222
216.418
196.444
177.431
159.196
141.542
124.141
106.892
89.5897
72.3169
55.4981
40.606
28.5677
18.7003
10.5896
4.19953
-0.369745
-3.13109
-4.17904
-3.61714
-1.47815
2.23663
7.87161
15.9851
29.8301
52.5891
56.987
8.33037
-46.456
-106.946
-169.663
-233.945
-298.227
-359.85
-417.23
-469.368
-515.014
-553.612
-584.857
-608.939
-626.094
-636.737
-640.899
-638.641
-630.61
-617.531
-601.263
-583.838
-566.417
-544.536
-511.359
-467.258
-420.36
-377.831
-340.186
-304.374
-268.758
-233.281
-197.987
-162.552
-126.646
-89.2641
-50.9473
-6.36704
25.8161
100.894
143.551
185.978
226.146
260.847
288.458
306.875
315.793
315.951
308.014
294.061
276.444
256.946
236.734
216.619
197.036
178.184
160.03
142.429
125.14
108.028
90.9528
73.978
57.4856
42.6384
30.3398
20.2188
11.9204
5.43058
0.836773
-1.92444
-3.01094
-2.54065
-0.527844
3.05819
8.57967
16.6049
30.3155
52.1929
79.5946
38.8062
-7.78996
-59.0326
-112.831
-169.117
-226.226
-282.397
-336.306
-386.797
-432.749
-473.432
-508.382
-537.449
-560.507
-577.682
-588.52
-592.98
-591.374
-584.318
-573.097
-559.26
-543.642
-523.379
-493.542
-454.078
-411.204
-371.126
-334.897
-300.201
-265.575
-230.924
-196.304
-161.408
-125.894
-88.7838
-50.6483
-6.26775
26.0219
116.129
151.216
186.409
220.362
250.08
274.3
291.207
300.32
301.883
296.36
285.347
270.587
253.541
235.309
216.68
198.137
179.955
162.218
144.872
127.77
110.812
93.923
77.1754
60.9279
46.1396
33.6605
23.3231
14.8043
8.06011
3.15245
0.0251555
-1.42622
-1.27758
0.476325
3.87028
9.25589
17.1824
30.7199
51.7484
85.7201
49.4041
7.72205
-38.4503
-87.0592
-138.516
-191.447
-244.241
-295.887
-345.228
-391.118
-432.747
-469.435
-500.686
-526.197
-545.66
-558.823
-565.693
-566.506
-561.884
-552.846
-540.678
-526.026
-506.852
-479.342
-443.146
-403.152
-364.861
-329.683
-295.864
-262.079
-228.185
-194.224
-159.896
-124.872
-88.1846
-50.3573
-6.3098
26.0857
118.33
149.48
180.809
211.03
237.502
259.35
275.182
284.417
287.082
283.599
275.12
262.958
248.258
231.978
214.87
197.443
180.031
162.814
145.826
129.008
112.304
95.6858
79.2366
63.2883
48.6329
36.0439
25.5129
16.7829
9.81533
4.67791
1.34406
-0.271821
-0.251686
1.39416
4.69373
9.99248
17.8269
31.1551
51.2953
89.5119
57.3597
20.2628
-20.7983
-64.0388
-110.159
-157.877
-205.914
-253.53
-299.667
-343.357
-383.831
-420.352
-452.324
-479.318
-500.959
-517.128
-527.628
-532.465
-532.003
-526.916
-518.101
-505.958
-489.017
-464.366
-431.584
-394.625
-358.369
-324.447
-291.58
-258.612
-225.424
-192.082
-158.307
-123.771
-87.5324
-50.0955
-6.52317
25.9712
118.385
145.862
173.697
200.747
224.57
244.522
259.472
268.741
272.236
270.374
263.999
254.125
241.648
227.365
211.951
195.887
179.524
163.091
146.691
130.336
114.02
97.7571
81.6484
66.0093
51.5148
38.8681
28.1814
19.2748
12.1148
6.76564
3.21317
1.37402
1.17117
2.60129
5.70639
10.8368
18.516
31.5753
50.8026
89.4313
60.4137
26.8452
-10.3443
-49.4304
-91.3468
-134.957
-179.14
-223.402
-266.804
-308.507
-347.825
-384.01
-416.413
-444.515
-467.866
-486.057
-498.823
-506.015
-507.911
-505.054
-498.15
-487.518
-472.151
-449.869
-420.171
-386.116
-351.902
-319.272
-287.375
-255.235
-222.736
-189.966
-156.7
-122.653
-86.9025
-49.9262
-6.94525
25.6523
115.516
140.261
165.456
190.043
211.779
230.211
244.408
253.629
257.737
257.144
252.491
244.574
234.096
221.701
207.968
193.32
178.098
162.559
146.852
131.047
115.19
99.3341
83.6019
68.2945
53.9978
41.3507
30.5495
21.4895
14.1481
8.58883
4.81214
2.75312
2.34665
3.59819
6.55428
11.5588
19.1125
31.8981
50.2355
87.7513
61.4118
30.8779
-2.91941
-38.3446
-76.4562
-116.208
-156.623
-197.379
-237.676
-276.79
-314.148
-349.06
-380.89
-409.079
-433.117
-452.54
-467.111
-476.626
-481.151
-480.985
-476.558
-468.031
-454.673
-434.888
-408.211
-377.018
-344.91
-313.678
-282.849
-251.628
-219.905
-187.776
-155.051
-121.496
-86.2552
-49.8311
-7.55996
25.0771
111.465
133.911
156.893
179.43
199.432
216.602
230.124
239.226
243.784
244.171
240.906
234.633
225.911
215.255
203.144
189.937
175.942
161.417
146.534
131.404
116.113
100.75
85.4545
70.5177
56.4644
43.8775
33.0106
23.8312
16.3348
10.5873
6.60487
4.33872
3.73179
4.79335
7.57611
12.4192
19.8027
32.2471
49.6664
84.8555
60.7372
32.7455
1.7852
-30.5646
-65.4267
-101.855
-138.969
-176.589
-214.018
-250.651
-286.027
-319.523
-350.542
-378.536
-402.967
-423.342
-439.292
-450.532
-456.957
-458.733
-456.154
-449.31
-437.682
-420.104
-396.154
-367.643
-337.609
-307.817
-278.097
-247.829
-216.918
-185.471
-153.332
-120.296
-85.5734
-49.7477
-8.27283
24.2267
106.601
127.153
148.298
169.117
187.655
203.756
216.661
225.598
230.47
231.611
229.46
224.553
217.344
208.248
197.652
185.847
173.101
159.649
145.668
131.295
116.644
101.833
87.0187
72.4849
58.7112
46.2344
35.3452
26.0759
18.445
12.5231
8.34127
5.86772
5.0574
5.92746
8.53752
13.2199
20.4292
32.5142
49.0376
81.3076
59.096
33.2988
4.801
-24.88
-56.892
-90.3552
-124.475
-159.173
-193.838
-227.975
-261.214
-293.004
-322.825
-350.151
-374.441
-395.189
-411.986
-424.528
-432.603
-436.213
-435.49
-430.421
-420.607
-405.199
-383.841
-357.916
-329.962
-301.667
-273.106
-243.829
-213.768
-183.038
-151.518
-119.039
-84.8612
-49.6475
-9.02577
23.1507
101.369
120.305
139.881
159.228
176.509
191.676
204.015
212.753
217.831
219.549
218.288
214.506
208.587
200.865
191.655
181.184
169.672
157.322
144.303
130.758
116.821
102.628
88.3479
74.2593
60.8093
48.4977
37.6375
28.3164
20.5799
14.506
10.1407
7.4706
6.46239
7.13962
9.56925
14.0747
21.0839
32.7622
48.3785
77.3744
56.8086
32.913
6.55066
-20.8101
-50.3303
-81.1833
-112.646
-144.699
-176.813
-208.586
-239.732
-269.771
-298.248
-324.688
-348.578
-369.41
-386.75
-400.238
-409.583
-414.647
-415.457
-411.944
-403.793
-390.382
-371.414
-347.928
-322.017
-295.249
-267.887
-239.637
-210.459
-180.48
-149.613
-117.724
-84.1272
-49.526
-9.82749
21.915
95.981
113.528
131.747
149.818
166.003
180.341
192.149
200.671
205.871
208.026
207.471
204.614
199.786
193.261
185.297
176.067
165.743
154.492
142.463
129.794
116.625
103.103
89.4027
75.7965
62.7099
50.6123
39.8285
30.4919
22.6767
16.4711
11.9358
9.07582
7.87215
8.35567
10.6014
14.9222
21.7168
32.962
47.684
73.2594
54.1364
31.9117
7.42779
-17.8962
-45.2147
-73.7451
-102.82
-132.472
-162.231
-191.766
-220.866
-249.118
-276.139
-301.5
-324.726
-345.331
-362.873
-376.959
-387.273
-393.553
-395.73
-393.677
-387.12
-375.598
-358.862
-337.686
-313.778
-288.565
-262.44
-235.253
-206.995
-177.802
-147.621
-116.356
-83.3799
-49.4019
-10.6943
20.5457
90.5952
106.93
123.96
140.903
156.125
169.714
181.02
189.316
194.572
197.053
197.061
194.961
191.049
185.558
178.7
170.606
161.403
151.224
140.19
128.425
116.066
103.261
90.1832
77.0989
64.4165
52.5816
41.9233
32.6114
24.7489
18.4364
13.7492
10.7112
9.31845
9.60869
11.6653
15.7889
22.3478
33.1263
46.9588
69.0922
51.2421
30.4983
7.6781
-15.8444
-41.2076
-67.6683
-94.6022
-122.081
-149.687
-177.14
-204.294
-230.793
-256.32
-280.501
-302.906
-323.079
-340.583
-355.001
-366.007
-373.244
-376.563
-375.798
-370.702
-360.92
-346.242
-327.236
-305.274
-281.625
-256.77
-230.677
-203.373
-175.001
-145.541
-114.935
-82.6188
-49.2965
-11.6271
19.0488
85.301
100.571
116.542
132.482
146.845
159.753
170.585
178.646
183.91
186.63
187.082
185.601
182.456
177.853
171.968
164.898
156.738
147.585
137.53
126.679
115.155
103.099
90.6795
78.1534
65.9134
54.3861
43.9001
34.6531
26.775
20.3808
15.5604
12.3562
10.7804
10.8783
12.7421
16.6586
22.9647
33.2508
46.2057
64.9589
48.2429
28.8229
7.48923
-14.4264
-38.0424
-62.6494
-87.6557
-113.167
-138.803
-164.328
-189.642
-214.446
-238.476
-261.419
-282.887
-302.457
-319.713
-334.23
-345.676
-353.65
-357.923
-358.297
-354.539
-346.364
-333.586
-316.61
-296.527
-274.443
-250.881
-225.91
-199.591
-172.074
-143.372
-113.459
-81.8405
-49.2167
-12.6229
17.4387
80.1613
94.4805
109.509
124.543
138.134
150.414
160.796
168.62
173.852
176.744
177.546
176.57
174.066
170.22
165.184
159.031
151.827
143.64
134.533
124.587
113.908
102.625
90.8923
78.9564
67.1946
56.0172
45.7492
36.608
28.7482
22.2998
17.3673
14.0113
12.261
12.169
13.8363
17.5351
23.5699
33.3392
45.4284
60.9153
45.2194
26.9904
6.99466
-13.4802
-35.5267
-58.4627
-81.732
-105.457
-129.29
-153.034
-176.626
-199.815
-222.386
-244.07
-264.53
-283.38
-300.231
-314.665
-326.345
-334.853
-339.894
-341.247
-338.687
-331.975
-320.938
-305.852
-287.569
-267.034
-244.782
-220.956
-195.649
-169.022
-141.112
-111.927
-81.0436
-49.1581
-13.6789
15.7281
75.2131
88.6775
102.852
117.067
129.955
141.654
151.61
159.194
164.368
167.375
168.452
167.886
165.918
162.718
158.419
153.08
146.744
139.454
131.25
122.186
112.349
101.849
90.8247
79.5052
68.2528
57.4643
47.4572
38.4624
30.6552
24.1812
19.159
15.6671
13.7516
13.473
14.9411
18.4125
24.1592
33.3918
44.6309
56.9984
42.2275
25.0772
6.29322
-12.8819
-33.5084
-54.9325
-76.6283
-98.7283
-120.913
-143.017
-165.007
-186.667
-207.825
-228.259
-247.673
-265.723
-282.048
-296.25
-307.983
-316.848
-322.491
-324.672
-323.173
-317.781
-308.333
-294.997
-278.43
-259.418
-238.481
-215.818
-191.55
-165.843
-138.759
-110.339
-80.2278
-49.1175
-14.7886
13.9231
70.4772
83.1682
96.566
110.033
122.275
133.435
142.987
150.33
155.424
158.504
159.794
159.562
158.04
155.388
151.727
147.105
141.55
135.086
127.73
119.515
110.504
100.786
90.4824
79.8001
69.0856
58.7204
49.0141
40.205
32.4853
26.0154
20.9276
17.3172
15.2476
14.7873
16.0543
19.2891
24.7315
33.4113
43.8169
53.2332
39.304
23.1363
5.45728
-12.539
-31.8745
-51.9262
-72.1904
-92.8088
-113.487
-134.082
-154.58
-174.802
-194.611
-213.822
-232.182
-249.381
-265.095
-278.946
-290.589
-299.654
-305.747
-308.611
-308.035
-303.822
-295.811
-284.089
-269.143
-251.618
-231.993
-210.505
-187.297
-162.538
-136.314
-108.694
-79.3926
-49.0925
-15.9439
12.0302
65.9644
77.952
90.6382
103.418
115.064
125.718
134.887
141.991
146.988
150.108
151.56
151.599
150.449
148.262
145.152
141.16
136.303
130.591
124.024
116.615
108.404
99.4586
89.8775
79.8458
69.6908
59.7795
50.4104
41.8246
34.2272
27.7915
22.6633
18.9535
16.7421
16.1061
17.1709
20.1611
25.2846
33.3994
42.9907
49.6337
36.4747
21.21
4.53973
-12.3784
-30.5381
-49.336
-68.2949
-87.5591
-106.856
-126.059
-145.177
-164.053
-182.582
-200.612
-217.923
-234.248
-249.289
-262.698
-274.136
-283.265
-289.672
-293.086
-293.299
-290.128
-283.411
-273.167
-259.745
-243.657
-225.334
-205.026
-182.894
-159.11
-133.778
-106.992
-78.5366
-49.0824
-17.1358
10.0604
61.6784
73.0214
85.0523
97.1973
108.291
118.471
127.274
134.141
139.03
142.163
143.737
143.995
143.155
141.363
138.728
135.286
131.049
126.017
120.177
113.525
106.08
97.8878
89.0242
79.6496
70.0707
60.6382
51.6385
43.3114
35.87
29.4993
24.3567
20.5677
18.2282
17.424
18.2865
21.0253
25.8169
33.359
42.157
46.2068
33.7575
19.3231
3.58298
-12.349
-29.4289
-47.0789
-64.8413
-82.8659
-100.894
-118.816
-136.654
-154.275
-171.595
-188.492
-204.778
-220.22
-234.551
-247.452
-258.599
-267.675
-274.277
-278.119
-278.992
-276.73
-271.168
-262.27
-250.269
-235.562
-218.52
-199.392
-178.348
-155.562
-131.15
-105.233
-77.6588
-49.0852
-18.3556
8.0257
57.6188
68.3674
79.7921
91.3489
101.925
111.66
120.114
126.749
131.52
134.644
136.309
136.744
136.162
134.705
132.478
129.517
125.829
121.408
116.233
110.284
103.564
96.0984
87.9386
79.2212
70.2295
61.2957
52.6931
44.6566
37.4039
31.1282
25.9978
22.1509
19.6982
18.7347
19.3962
21.8779
26.3269
33.2923
41.3204
42.9561
31.1634
17.4965
2.61496
-12.4078
-28.4952
-45.0885
-61.7531
-78.638
-95.499
-112.238
-128.89
-145.339
-161.522
-177.341
-192.635
-207.202
-220.805
-233.152
-243.94
-252.869
-259.564
-263.72
-265.136
-263.656
-259.116
-251.435
-240.754
-227.364
-211.572
-193.616
-173.667
-151.897
-128.433
-103.416
-76.757
-49.0981
-19.5946
5.93915
53.7814
63.9802
74.8419
85.8507
95.9419
105.255
113.376
119.784
124.432
127.532
129.261
129.837
129.47
128.299
126.423
123.88
120.676
116.802
112.229
106.93
100.89
94.1174
86.6416
78.5743
70.1738
61.7529
53.5703
45.8532
38.8194
32.6684
27.5768
23.6942
21.1444
20.0317
20.4947
22.7154
26.8129
33.2022
40.4851
39.881
28.6979
15.7444
1.659
-12.5242
-27.6941
-43.3133
-58.9661
-74.8006
-90.5852
-106.234
-121.787
-137.146
-152.262
-167.059
-181.4
-195.11
-207.977
-219.741
-230.12
-238.826
-245.525
-249.897
-251.747
-250.932
-247.288
-240.701
-231.235
-219.09
-204.512
-187.713
-168.861
-148.121
-125.63
-101.542
-75.8293
-49.1168
-20.8433
3.81504
50.1616
59.8485
70.1849
80.6809
90.3169
99.2309
107.034
113.22
117.741
120.803
122.575
123.266
123.078
122.147
120.574
118.395
115.617
112.23
108.202
103.496
98.0895
91.9722
85.1547
77.7237
69.9124
62.0131
54.2685
46.8953
40.1086
34.1104
29.084
25.1882
22.5585
21.3079
21.5763
23.5339
27.2738
33.0914
39.6559
36.9794
26.3644
14.0749
0.730849
-12.6732
-26.9933
-41.7104
-56.4286
-71.291
-86.0818
-100.722
-115.258
-129.603
-143.721
-157.554
-170.983
-183.861
-195.999
-207.163
-217.096
-225.524
-232.15
-236.652
-238.837
-238.577
-235.712
-230.102
-221.748
-210.774
-197.365
-181.702
-163.941
-144.242
-122.742
-99.6114
-74.8735
-49.1368
-22.0916
1.66829
46.7513
55.9606
65.8051
75.8198
85.0268
93.5636
101.063
107.031
111.423
114.438
116.236
117.017
116.978
116.253
114.94
113.078
110.675
107.72
104.18
100.015
95.1927
89.6898
83.4997
76.686
69.4568
62.0825
54.7884
47.7794
41.2645
35.4456
30.5099
26.6238
23.9319
22.5559
22.6353
24.3295
27.7082
32.9626
38.8373
34.2474
24.1628
12.4946
-0.157355
-12.838
-26.3667
-40.247
-54.0984
-68.062
-81.9314
-95.6371
-109.229
-122.63
-135.816
-148.742
-161.306
-173.382
-184.805
-195.365
-204.829
-212.936
-219.426
-223.982
-226.417
-226.612
-224.415
-219.669
-212.327
-202.446
-190.154
-175.6
-158.921
-140.267
-119.775
-97.625
-73.887
-49.1525
-23.3304
-0.487011
43.5423
52.3058
61.6882
71.2491
80.0516
88.2302
95.4373
101.195
105.456
108.417
110.228
111.079
111.165
110.616
109.527
107.939
105.865
103.292
100.19
96.5144
92.2279
87.2969
81.7
75.4801
68.8202
61.9684
55.1325
48.5031
42.2814
36.6661
31.8456
27.9916
25.2563
23.7681
23.6656
25.0983
28.1151
32.8183
38.0334
31.6798
22.0923
11.0061
-0.997699
-13.003
-25.7945
-38.8957
-51.9419
-65.0705
-78.0869
-90.926
-103.641
-116.164
-128.478
-140.551
-152.297
-163.606
-174.334
-184.293
-193.273
-201.03
-207.333
-211.88
-214.489
-215.048
-213.419
-209.434
-203.005
-194.138
-182.908
-169.428
-153.815
-136.205
-116.734
-95.5837
-72.8677
-49.1577
-24.5488
-2.63533
40.5268
48.8712
57.8192
66.9526
75.372
83.2093
90.1365
95.6892
99.8216
102.722
104.534
105.44
105.63
105.23
104.334
102.987
101.2
98.9659
96.253
93.019
89.2211
84.8189
79.7789
74.125
68.0171
61.6804
55.3048
49.0666
43.1555
37.7651
33.083
29.283
26.5226
24.9367
24.6611
25.8362
28.4935
32.661
37.248
29.2701
20.1503
9.61107
-1.78478
-13.1577
-25.2605
-37.6343
-49.9305
-62.283
-74.5061
-86.5402
-98.4402
-110.145
-121.647
-132.92
-143.893
-154.471
-164.528
-173.897
-182.387
-189.776
-195.853
-200.337
-203.053
-203.898
-202.744
-199.422
-193.814
-185.88
-175.652
-163.206
-148.639
-132.068
-113.623
-93.4893
-71.8121
-49.1459
-25.7365
-4.76174
37.696
45.6465
54.1843
62.9127
70.9689
78.4813
85.1405
90.4952
94.4991
97.3347
99.1404
100.089
100.364
100.092
99.3638
98.225
96.6907
94.7545
92.388
89.55
86.1958
82.2792
77.7579
72.6402
67.0627
61.2296
55.312
49.471
43.8843
38.7375
34.2143
30.4893
27.7228
26.0538
25.6154
26.5393
28.8422
32.4927
36.4848
27.0126
18.3335
8.30913
-2.51518
-13.295
-24.7528
-36.4463
-48.0424
-59.6714
-71.1557
-82.4413
-93.5825
-104.526
-115.269
-125.793
-136.038
-145.922
-155.336
-164.13
-172.132
-179.14
-184.962
-189.342
-192.108
-193.168
-192.408
-189.658
-184.78
-177.702
-168.414
-156.96
-143.41
-127.866
-110.45
-91.3426
-70.7187
-49.1094
-26.8829
-6.851
35.0415
42.6202
50.7701
59.1143
66.8259
74.0287
80.4302
85.5937
89.4711
92.2398
94.0317
95.0115
95.359
95.1959
94.6123
93.655
92.3418
90.6684
88.6096
86.1259
83.1724
79.6994
75.6583
71.0442
65.9733
60.6278
55.1616
49.7198
44.4669
39.5787
35.2332
31.6028
28.8486
27.1121
26.5224
27.2036
29.1603
32.3154
35.7467
24.901
16.6372
7.09934
-3.18671
-13.4091
-24.2611
-35.3175
-46.2589
-57.212
-68.007
-78.5954
-89.0302
-99.264
-109.298
-119.122
-128.682
-137.91
-146.709
-154.946
-162.47
-169.091
-174.636
-178.878
-181.646
-182.86
-182.421
-180.162
-175.932
-169.631
-161.219
-150.709
-138.147
-123.613
-107.222
-89.1476
-69.5841
-49.0415
-27.9792
-8.88785
32.5543
39.7817
47.5643
55.5442
62.9275
69.8354
75.9895
80.9675
84.721
87.4212
89.1938
90.1965
90.6034
90.5337
90.0759
89.2772
88.1578
86.7161
84.9297
82.762
80.1687
77.0994
73.5004
69.3568
64.7654
59.8884
54.8625
49.8177
44.9042
40.2862
36.1342
32.6165
29.8923
28.1039
27.3759
27.825
29.4468
32.1303
35.036
22.9284
15.0577
5.97893
-3.79823
-13.4962
-23.7786
-34.2364
-44.5652
-54.8857
-65.0373
-74.975
-84.7518
-94.3234
-103.697
-112.864
-121.781
-130.39
-138.604
-146.307
-153.361
-159.598
-164.852
-168.929
-171.66
-172.977
-172.795
-170.953
-167.292
-161.695
-154.095
-144.478
-132.866
-119.322
-103.946
-86.9055
-68.4063
-48.9355
-29.0144
-10.8585
30.2259
37.1209
44.5552
52.1885
59.2591
65.8858
71.8022
76.6009
80.2329
82.864
84.6136
85.6319
86.0885
86.0989
85.75
85.0899
84.1403
82.9025
81.3572
79.4705
77.2002
74.4966
71.3029
67.5955
63.455
59.0247
54.4249
49.7707
45.198
40.8586
36.9134
33.524
30.8467
29.0224
28.1701
28.3999
29.7006
31.9387
34.3546
21.088
13.5897
4.94569
-4.35032
-13.5539
-23.2999
-33.1947
-42.9482
-52.6763
-62.2263
-71.5554
-80.7179
-89.6726
-98.4285
-106.982
-115.297
-123.321
-130.981
-138.173
-144.771
-150.627
-155.585
-159.476
-162.141
-163.517
-163.535
-162.044
-158.881
-153.917
-147.067
-138.29
-127.589
-115.007
-100.633
-84.6202
-67.1832
-48.7822
-29.98
-12.7496
28.0484
34.6279
41.7315
49.0345
55.8071
62.1648
67.8535
72.4788
75.9924
78.5541
80.2775
81.3058
81.8036
81.8831
81.6286
81.0896
80.289
79.2306
77.8983
76.2614
74.2804
71.9063
69.0817
65.777
62.0578
58.0502
53.8596
49.5865
45.3524
41.2961
37.5675
34.3206
31.7057
29.861
28.8995
28.9244
29.9206
31.7412
33.7036
19.3734
12.228
3.99655
-4.84407
-13.5805
-22.82
-32.1849
-41.3974
-50.5697
-59.5558
-68.3166
-76.9047
-85.2831
-93.4625
-101.443
-109.192
-116.668
-123.804
-130.508
-136.669
-142.151
-146.811
-150.503
-153.075
-154.475
-154.645
-153.447
-150.717
-146.32
-140.155
-132.166
-122.334
-110.684
-97.2897
-82.2956
-65.9127
-48.5764
-30.8662
-14.5486
26.0136
32.2932
39.0825
46.0711
52.5591
58.6595
64.1295
68.5874
71.9858
74.4782
76.1731
77.2069
77.7382
77.8775
77.7055
77.2725
76.603
75.7022
74.5578
73.1425
71.4193
69.3414
66.8519
63.9168
60.5891
56.979
53.178
49.2732
45.3721
41.6
38.0953
35.0021
32.4638
30.6138
29.5588
29.3951
30.1055
31.538
33.0832
17.7782
10.968
3.12787
-5.2808
-13.5756
-22.3368
-31.2017
-39.9054
-48.5553
-57.013
-65.2414
-73.2924
-81.1323
-88.7726
-96.2167
-103.437
-110.397
-117.039
-123.28
-129.021
-134.14
-138.505
-141.989
-144.45
-145.845
-146.126
-145.169
-142.815
-138.922
-133.384
-126.128
-117.118
-106.366
-93.9282
-79.9354
-64.5941
-48.3112
-31.6658
-16.2448
24.1138
30.1086
36.5983
43.287
49.503
55.3571
60.6168
64.9139
68.2002
70.6242
72.2885
73.3238
73.8832
74.0735
73.9736
73.6334
73.079
72.3171
71.3385
70.1193
68.6256
66.8132
64.6266
62.0292
59.0632
55.8244
52.3916
48.8398
45.2631
41.7733
38.4963
35.566
33.1169
31.276
30.1436
29.8089
30.2542
31.3289
32.4931
16.2959
9.80425
2.33619
-5.66259
-13.5393
-21.8481
-30.241
-38.4656
-46.6245
-54.5857
-62.3153
-69.8634
-77.1995
-84.336
-91.2787
-98.004
-104.481
-110.657
-116.46
-121.801
-126.569
-130.645
-133.916
-136.252
-137.618
-137.977
-137.217
-135.185
-131.741
-126.772
-120.195
-111.962
-102.068
-90.5574
-77.5446
-63.2271
-47.9808
-32.3712
-17.8285
22.3416
28.0655
34.2695
40.6714
46.6277
52.2459
57.3037
61.4457
64.6231
66.9796
68.6126
69.6464
70.2287
70.4627
70.4256
70.1671
69.7136
69.0742
68.2417
67.1958
65.906
64.3307
62.4171
60.1269
57.4932
54.5991
51.5122
48.2961
45.0323
41.8198
38.7719
36.0109
33.6615
31.8433
30.6498
30.1625
30.3653
31.1132
31.9323
14.9204
8.73184
1.61774
-5.99165
-13.472
-21.3523
-29.2991
-37.0714
-44.7681
-52.2628
-59.5249
-66.602
-73.4669
-80.1328
-86.6064
-92.8683
-98.8911
-104.63
-110.02
-114.98
-119.413
-123.206
-126.263
-128.467
-129.785
-130.195
-129.593
-127.836
-124.789
-120.335
-114.385
-106.881
-97.8052
-87.1878
-75.1285
-61.8108
-47.5808
-32.9762
-19.2906
20.6899
26.1556
32.0871
38.2151
43.9228
49.315
54.179
58.1709
61.2433
63.5336
65.1343
66.1637
66.7644
67.0366
67.0543
66.8673
66.5027
65.9706
65.2671
64.3744
63.2652
61.9014
60.2329
58.221
55.8912
53.3152
50.551
47.6518
44.6876
41.7448
38.9243
36.3366
34.0959
32.3127
31.0742
30.4536
30.4373
30.8899
31.3989
13.6456
7.74579
0.968699
-6.27043
-13.3746
-20.8493
-28.3738
-35.7194
-42.9799
-50.0361
-56.859
-63.4948
-69.9183
-76.144
-82.1795
-88.0081
-93.6063
-98.935
-103.935
-108.535
-112.647
-116.168
-119.013
-121.078
-122.336
-122.773
-122.297
-120.776
-118.078
-114.089
-108.716
-101.893
-93.591
-83.8298
-72.6926
-60.3472
-47.1066
-33.4753
-20.6244
19.1519
24.3714
30.0426
35.9088
41.3784
46.554
51.2315
55.0792
58.0495
60.2747
61.8427
62.8657
63.4811
63.7859
63.8518
63.7277
63.441
63.0037
62.4136
61.656
60.7067
59.5309
58.0816
56.321
54.2681
51.9844
49.5192
46.917
44.2371
41.5543
38.9571
36.5443
34.419
32.6821
31.414
30.6799
30.4688
30.6575
30.8906
12.4659
6.84118
0.385238
-6.50161
-13.2487
-20.3385
-27.4635
-34.4057
-41.2554
-47.8985
-54.3087
-60.5307
-66.5413
-72.3549
-77.9804
-83.4038
-88.6046
-93.5484
-98.1824
-102.443
-106.249
-109.509
-112.147
-114.071
-115.26
-115.705
-115.329
-114.008
-111.617
-108.046
-103.201
-97.0108
-89.439
-80.4938
-70.243
-58.8372
-46.5566
-33.8651
-21.8242
17.7208
22.7054
28.128
33.7435
38.9852
43.953
48.4513
52.16
55.0315
57.193
58.7281
59.7428
60.3699
60.703
60.8108
60.7417
60.5237
60.1697
59.6793
59.0407
58.2325
57.2236
55.9701
54.4353
52.6335
50.617
48.4273
46.1015
43.6894
41.2549
38.875
36.6364
34.6315
32.9508
31.6678
30.8397
30.4586
30.4143
30.4045
11.3756
6.01335
-0.136508
-6.68788
-13.0956
-19.8201
-26.5664
-33.1274
-39.5895
-45.8435
-51.8659
-57.6995
-63.3229
-68.7512
-73.9935
-79.0381
-83.8672
-88.4506
-92.7411
-96.6814
-100.198
-103.21
-105.647
-107.43
-108.543
-108.984
-108.685
-107.533
-105.412
-102.216
-97.8523
-92.2486
-85.3614
-77.1893
-67.7863
-57.2833
-45.9293
-34.1423
-22.886
16.3907
21.1509
26.3357
31.7113
36.7347
41.5029
45.8287
49.4032
52.1794
54.2788
55.7809
56.7859
57.4218
57.7788
57.9233
57.9026
57.7451
57.4641
57.0614
56.5274
55.8438
54.9824
53.9033
52.5712
50.9958
49.2223
47.2853
45.2152
43.0535
40.8542
38.6833
36.6165
34.7349
33.1188
31.8345
30.9318
30.4052
30.1584
29.9373
10.3694
5.25766
-0.600293
-6.83214
-12.9172
-19.2949
-25.6824
-31.8827
-37.9784
-43.8659
-49.5234
-54.9925
-60.253
-65.3204
-70.2045
-74.8952
-79.377
-83.6234
-87.5922
-91.2319
-94.4764
-97.2517
-99.4961
-101.141
-102.175
-102.6
-102.36
-101.351
-99.4666
-96.6059
-92.6808
-87.6177
-81.3693
-73.9262
-65.3287
-55.689
-45.224
-34.3059
-23.8073
15.1555
19.7012
24.6585
29.8043
34.6183
39.1949
43.355
46.8002
49.4839
51.5226
52.9917
53.9859
54.6283
55.0057
55.1819
55.2038
55.0991
54.8824
54.5567
54.1146
53.5405
52.8095
51.8851
50.7341
49.3626
47.8089
46.1023
44.2674
42.3382
40.3598
38.3885
36.4892
34.732
33.1875
31.9144
30.9555
30.3077
29.8875
29.4852
9.44227
4.56969
-1.00977
-6.93697
-12.7152
-18.7634
-24.8106
-30.6695
-36.4189
-41.961
-47.2753
-52.4019
-57.3224
-62.052
-66.6012
-70.961
-75.1187
-79.0502
-82.7181
-86.0759
-89.0645
-91.6166
-93.6773
-95.1883
-96.1405
-96.5438
-96.3474
-95.4597
-93.782
-91.2216
-87.6941
-83.1278
-77.4729
-70.7132
-62.8771
-54.0583
-44.4423
-34.3554
-24.5869
14.0093
18.3502
23.0894
28.0151
32.6283
37.021
41.0213
44.3421
46.9362
48.9157
50.3517
51.334
51.9808
52.3754
52.5794
52.6384
52.5801
52.4196
52.1613
51.7999
51.3222
50.7059
49.9185
48.9288
47.74
46.3846
44.887
43.2669
41.5522
39.7801
37.9976
36.2598
34.6267
33.1592
31.9085
30.9109
30.1649
29.5996
29.0446
8.5892
3.94496
-1.36847
-7.00521
-12.4916
-18.2264
-23.9508
-29.4864
-34.9088
-40.125
-45.1164
-49.9212
-54.5228
-58.9365
-63.1724
-67.2233
-71.0782
-74.716
-78.1028
-81.1971
-83.9456
-86.2878
-88.1744
-89.5565
-90.4283
-90.8038
-90.6397
-89.8545
-88.3582
-86.0659
-82.8983
-78.787
-73.6809
-67.5587
-60.4384
-52.3955
-43.5865
-34.2925
-25.2257
12.9468
17.0917
21.6222
26.3367
30.7574
34.9732
38.8199
42.0203
44.5279
46.4497
47.8528
48.8223
49.4714
49.8804
50.1083
50.1996
50.1821
50.0708
49.8715
49.5806
49.1872
48.672
48.0056
47.159
46.1334
44.956
43.6471
42.2224
40.7043
39.1231
37.518
35.9346
34.4238
33.0372
31.8186
30.7985
29.9763
29.2924
28.6113
7.80553
3.37953
-1.68
-7.03967
-12.2482
-17.6851
-23.103
-28.3324
-33.4457
-38.3545
-43.0415
-47.5442
-51.8468
-55.9645
-59.9078
-63.6703
-67.243
-70.6067
-73.7315
-76.5799
-79.1039
-81.2494
-82.9723
-84.2316
-85.0249
-85.3691
-85.2284
-84.5299
-83.193
-81.1399
-78.2976
-74.6012
-70.0005
-64.4703
-58.0191
-50.706
-42.6601
-34.1196
-25.7252
11.9628
15.9203
20.2508
24.7628
28.9986
33.0445
36.7432
39.8274
42.2512
44.1164
45.4869
46.4428
47.0924
47.5132
47.7616
47.8812
47.899
47.8307
47.6828
47.4536
47.134
46.7073
46.1475
45.4276
44.5471
43.5289
42.3897
41.1417
39.8027
38.3974
36.9573
35.5205
34.1288
32.8255
31.6474
30.6195
29.7416
28.9638
28.1815
7.08677
2.86933
-1.94761
-7.04301
-11.987
-17.1407
-22.2675
-27.207
-32.0277
-36.6464
-41.0473
-45.2659
-49.288
-53.1287
-56.7983
-60.2917
-63.6011
-66.7098
-69.5906
-72.2099
-74.5248
-76.4866
-78.0562
-79.1994
-79.9171
-80.2286
-80.1043
-79.4795
-78.2825
-76.4428
-73.8938
-70.5751
-66.438
-61.4545
-55.6257
-48.9956
-41.6677
-33.8406
-26.0887
11.0524
14.8304
18.9695
23.2871
27.3453
31.2277
34.7838
37.7559
40.0984
41.9086
43.2466
44.188
44.8366
45.2669
45.5328
45.6765
45.7251
45.6942
45.5912
45.4156
45.1603
44.8111
44.3447
43.7368
42.985
42.1085
41.121
40.032
38.8555
37.6109
36.3237
35.0247
33.748
32.5291
31.3983
30.3757
29.4608
28.612
27.7513
6.42861
2.41062
-2.17458
-7.01781
-11.7098
-16.5942
-21.4446
-26.1093
-30.6536
-34.9984
-39.1297
-43.0813
-46.8404
-50.4217
-53.8358
-57.0782
-60.1423
-63.0134
-65.6674
-68.0738
-70.1941
-71.9848
-73.4116
-74.4462
-75.0921
-75.3704
-75.2573
-74.6954
-73.6214
-71.9721
-69.6873
-66.7114
-62.9978
-58.5173
-53.2645
-47.2702
-40.6148
-33.4604
-26.3207
10.2109
13.817
17.7724
21.9037
25.7912
29.5164
32.9351
35.7989
38.0624
39.8187
41.1244
42.0507
42.697
43.1345
43.415
43.5796
43.6548
43.6563
43.5921
43.463
43.2636
42.9819
42.5974
42.0879
41.45
40.6991
39.8469
38.9003
37.8702
36.7718
35.6251
34.4548
33.2882
32.1535
31.0755
30.0694
29.1343
28.2353
27.3171
5.82706
1.99968
-2.36393
-6.96665
-11.4185
-16.0467
-20.6348
-25.0391
-29.3217
-33.4081
-37.2853
-40.9861
-44.4986
-47.8373
-51.0125
-54.0208
-56.8568
-59.5072
-61.9503
-64.1592
-66.0989
-67.731
-69.0251
-69.9585
-70.5368
-70.7825
-70.6768
-70.1693
-69.2036
-67.7241
-65.677
-63.0114
-59.6835
-55.6637
-50.9414
-45.536
-39.5075
-32.9853
-26.4267
9.4338
12.8754
16.6546
20.6069
24.3306
27.9045
31.1906
33.9495
36.1365
37.8402
39.1138
40.0242
40.6667
41.1094
41.4022
41.5845
41.6825
41.7118
41.6812
41.5925
41.4415
41.2183
40.9052
40.482
39.9443
39.3046
38.5723
37.7528
36.854
35.8877
34.8695
33.8186
32.7563
31.7049
30.6836
29.7036
28.7631
27.8326
26.8757
5.27821
1.63316
-2.51874
-6.89183
-11.115
-15.4995
-19.8384
-23.9958
-28.0309
-31.8735
-35.5115
-38.9766
-42.2579
-45.3695
-48.3217
-51.1117
-53.7353
-56.1806
-58.4283
-60.454
-62.2267
-63.7121
-64.8837
-65.7234
-66.2387
-66.4532
-66.3521
-65.8916
-65.0219
-63.6941
-61.8604
-59.475
-56.4971
-52.8975
-48.6618
-43.7993
-38.3527
-32.4219
-26.4132
8.71692
12.0008
15.6111
19.3916
22.9577
26.3858
29.544
32.2017
34.3143
35.9664
37.2081
38.102
38.7395
39.1857
39.4881
39.6854
39.8028
39.856
39.8542
39.8001
39.691
39.5185
39.2676
38.9197
38.4699
37.9281
37.3017
36.595
35.8135
34.9661
34.0646
33.1237
32.1597
31.1896
30.2277
29.2817
28.3486
27.403
26.4241
4.7784
1.30776
-2.64184
-6.79573
-10.8011
-14.9535
-19.0558
-22.9793
-26.7804
-30.3927
-33.8055
-37.0489
-40.1135
-43.0127
-45.7569
-48.3436
-50.7697
-53.0247
-55.0912
-56.9476
-58.566
-59.9161
-60.9748
-61.7281
-62.1853
-62.3705
-62.2724
-61.8528
-61.0682
-59.8758
-58.2338
-56.1008
-53.4398
-50.2221
-46.4305
-42.0665
-37.1575
-31.7778
-26.2875
8.05622
11.1891
14.6373
18.2527
21.6674
24.9552
27.9899
30.5494
32.5898
34.1914
35.4012
36.278