/*--------------------------------*- C++ -*----------------------------------*\
| =========                 |                                                 |
| \\      /  F ield         | OpenFOAM: The Open Source CFD Toolbox           |
|  \\    /   O peration     | Version:  2312                                  |
|   \\  /    A nd           | Website:  www.openfoam.com                      |
|    \\/     M anipulation  |                                                 |
\*---------------------------------------------------------------------------*/
FoamFile
{
    version     2.0;
    format      ascii;
    arch        "LSB;label=32;scalar=64";
    class       surfaceScalarField;
    location    "450";
    object      phi;
}
// * * * * * * * * * * * * * * * * * * * * * * * * * * * * * * * * * * * * * //

dimensions      [0 3 -1 0 0 0 0];

oriented        oriented;

internalField   nonuniform List<scalar> 
21254
(
-0.233801
0.253398
-0.0195977
0.275396
-0.0219979
0.294333
-0.0189371
0.311246
-0.0169133
0.327221
-0.015975
0.339949
-0.0127281
0.349933
-0.00998361
0.357923
-0.00798974
0.362951
-0.00502834
0.366014
-0.00306314
0.367163
-0.00114822
0.365845
0.00131775
0.362193
0.00365176
0.356027
0.00616602
0.346947
0.00907993
0.334842
0.0121052
0.318931
0.0159104
0.29853
0.0204018
0.272472
0.026058
0.240007
0.032465
0.200644
0.0393624
0.157726
0.0429185
0.119269
0.0384566
0.0951022
0.0241671
0.0901246
0.00497767
0.0996542
-0.00952973
0.113628
-0.0139734
0.126105
-0.0124768
0.13515
-0.00904534
0.140765
-0.00561469
0.143514
-0.00274952
0.143547
-3.32003e-05
0.140728
0.00281929
0.135164
0.00556385
0.126583
0.00858177
0.113961
0.0126216
0.0954334
0.0185281
0.0671564
0.0282779
0.0662147
0.000953353
-0.210716
-0.0230842
-0.186778
-0.0239385
-0.157389
-0.0293888
-0.125183
-0.0322062
-0.0912715
-0.0339114
-0.0563293
-0.0349421
-0.0219498
-0.0343795
0.00991963
-0.0318695
0.0388804
-0.0289608
0.0644587
-0.0255783
0.086412
-0.0219534
0.105104
-0.0186924
0.120826
-0.0157218
0.133921
-0.0130947
0.145107
-0.0111856
0.154705
-0.00959878
0.163194
-0.00848858
0.170803
-0.00760945
0.177842
-0.00703908
0.184431
-0.00658806
0.190736
-0.00630548
0.196743
-0.00600706
0.202376
-0.00563326
0.206984
-0.00460735
0.210386
-0.00340196
0.212907
-0.00252161
0.214604
-0.0016971
0.215706
-0.00110135
0.216351
-0.000645556
0.216533
-0.000182096
0.216037
0.000496209
0.214777
0.00126043
0.212751
0.00202562
0.209999
0.00275193
0.206437
0.00356211
0.201731
0.00470601
0.194917
0.00681347
0.181097
0.01382
0.161217
0.0198801
-0.213179
0.234686
-0.0411051
0.25671
-0.0440221
0.279735
-0.0419613
0.301247
-0.0384253
0.322288
-0.0370167
0.341872
-0.0323117
0.359598
-0.0277094
0.37575
-0.0241419
0.389959
-0.0192375
0.402304
-0.0154085
0.413023
-0.0118664
0.422562
-0.00822136
0.431262
-0.00504838
0.439174
-0.00174567
0.446088
0.0021654
0.451567
0.00662632
0.455276
0.0122014
0.456854
0.0188243
0.454948
0.0279638
0.44838
0.0390325
0.434681
0.0530614
0.412244
0.0653554
0.380908
0.0697926
0.345676
0.0593993
0.313036
0.0376176
0.284873
0.0186335
0.260956
0.00994379
0.241414
0.00706452
0.226489
0.0058804
0.215543
0.00533043
0.206722
0.00607156
0.198439
0.00825056
0.189748
0.0115105
0.179894
0.0154169
0.168132
0.020344
0.152939
0.0278157
0.133143
0.0383238
0.0994029
0.0620189
0.071417
0.0289465
-0.191219
-0.045044
-0.167719
-0.0474382
-0.140206
-0.0569023
-0.111101
-0.0613115
-0.0801853
-0.0648266
-0.0478566
-0.0672708
-0.0156147
-0.0666214
0.0152081
-0.0626923
0.0433622
-0.0571148
0.0684118
-0.0506279
0.0901896
-0.0437311
0.109073
-0.0375761
0.125518
-0.0321668
0.139747
-0.0273235
0.152209
-0.0236481
0.163208
-0.0205973
0.173036
-0.0183166
0.182001
-0.0165746
0.19036
-0.0153981
0.198224
-0.0144518
0.205756
-0.0138375
0.213027
-0.0132781
0.219969
-0.0125752
0.226124
-0.0107621
0.231218
-0.00849674
0.235442
-0.00674568
0.238699
-0.00495396
0.240897
-0.00329933
0.241988
-0.00173614
0.242078
-0.000272047
0.241392
0.00118206
0.240115
0.00253715
0.238266
0.00387471
0.235842
0.005176
0.232766
0.00663858
0.22874
0.00873089
0.223786
0.0117686
0.21344
0.024165
0.19539
0.0379303
-0.206941
0.228639
-0.0628026
0.250486
-0.0658697
0.274075
-0.0655497
0.295637
-0.0599876
0.316131
-0.0575105
0.335727
-0.0519078
0.353127
-0.0451089
0.368721
-0.0397363
0.382062
-0.0325782
0.393413
-0.0267597
0.402736
-0.0211897
0.410163
-0.0156483
0.415545
-0.0104308
0.419363
-0.00556365
0.421618
-8.91559e-05
0.423338
0.00490589
0.424623
0.0109166
0.426406
0.0170419
0.429119
0.0252502
0.433447
0.0347043
0.439368
0.0471412
0.444871
0.0598517
0.446116
0.0685484
0.440186
0.0653286
0.428123
0.0496811
0.412438
0.0343184
0.394185
0.0281966
0.372831
0.0284187
0.348214
0.0304971
0.32163
0.0319147
0.295517
0.0321842
0.271935
0.0318323
0.251257
0.0321891
0.232256
0.0344175
0.213224
0.0393762
0.19203
0.0490096
0.167134
0.06322
0.129588
0.0995656
0.0870828
0.0714553
-0.185103
-0.0668823
-0.161173
-0.0713681
-0.132551
-0.085525
-0.102786
-0.0910756
-0.0716831
-0.0959299
-0.0393922
-0.0995617
-0.00749531
-0.0985182
0.0222861
-0.0924737
0.0495766
-0.0844052
0.074282
-0.0753333
0.0960769
-0.065526
0.115137
-0.0566363
0.131846
-0.0488755
0.14648
-0.0419579
0.159348
-0.0365155
0.170786
-0.0320361
0.181062
-0.028592
0.190441
-0.0259534
0.199131
-0.0240879
0.207296
-0.0226173
0.215124
-0.021665
0.222626
-0.0207809
0.229707
-0.0196562
0.236066
-0.0171205
0.241413
-0.0138436
0.24586
-0.0111933
0.249477
-0.00857052
0.252301
-0.00612369
0.254398
-0.00383255
0.255758
-0.00163254
0.25644
0.000500278
0.256406
0.00257128
0.255661
0.00461907
0.254134
0.00670324
0.25174
0.00903306
0.248125
0.0123449
0.242973
0.0169215
0.232687
0.0344507
0.214883
0.0557341
-0.199339
0.222022
-0.0854856
0.244787
-0.088635
0.269821
-0.0905835
0.292676
-0.0828424
0.314837
-0.0796716
0.33609
-0.0731607
0.355614
-0.064633
0.373234
-0.0573561
0.389162
-0.0485061
0.403178
-0.0407756
0.415393
-0.0334054
0.425823
-0.0260774
0.43453
-0.0191382
0.44159
-0.0126233
0.447302
-0.0058021
0.451123
0.00108547
0.453157
0.00888294
0.453178
0.0170204
0.451738
0.0266905
0.449322
0.0371199
0.447189
0.0492742
0.446607
0.060434
0.447054
0.0681008
0.446268
0.0661151
0.442343
0.0536064
0.435853
0.040808
0.428154
0.0358953
0.419547
0.037026
0.408993
0.0410517
0.394778
0.0461295
0.375423
0.0515395
0.350762
0.0564932
0.322732
0.0602195
0.294035
0.063114
0.265968
0.0674436
0.237202
0.0777752
0.205656
0.0947665
0.162907
0.142315
0.112314
0.122053
-0.176944
-0.0892775
-0.152939
-0.0953731
-0.123818
-0.114646
-0.0939228
-0.120971
-0.0627561
-0.127097
-0.0303629
-0.131955
0.00144703
-0.130328
0.030854
-0.121881
0.0576738
-0.111225
0.0820058
-0.0996654
0.103499
-0.0870189
0.122395
-0.0755325
0.139126
-0.0656063
0.153945
-0.0567767
0.167171
-0.0497424
0.179031
-0.0438953
0.189816
-0.0393776
0.199706
-0.0358433
0.208931
-0.0333124
0.217628
-0.0313147
0.225908
-0.0299455
0.233838
-0.0287104
0.241356
-0.027174
0.24814
-0.0239048
0.253942
-0.0196452
0.258822
-0.016074
0.262834
-0.0125824
0.266029
-0.0093189
0.26844
-0.00624268
0.270134
-0.00332699
0.271145
-0.000510532
0.271494
0.00222188
0.271176
0.00493709
0.270174
0.00770513
0.268365
0.0108419
0.265378
0.0153318
0.260652
0.0216484
0.250922
0.0441804
0.232552
0.0741039
-0.195501
0.219005
-0.10899
0.242641
-0.11227
0.269066
-0.117009
0.292661
-0.106437
0.315799
-0.10281
0.33809
-0.0954518
0.358427
-0.0849702
0.376915
-0.0758437
0.393842
-0.0654332
0.408554
-0.0554877
0.421431
-0.0462823
0.432404
-0.0370504
0.44175
-0.0284843
0.44915
-0.0200226
0.454747
-0.0113991
0.458607
-0.00277481
0.461005
0.00648458
0.462067
0.0159588
0.46166
0.0270977
0.460211
0.0385684
0.45783
0.0516556
0.454934
0.06333
0.451599
0.0714359
0.447144
0.0705704
0.440915
0.0598353
0.433356
0.0483665
0.425649
0.0436023
0.41853
0.044145
0.412029
0.0475523
0.405817
0.0523422
0.398796
0.0585602
0.388876
0.066413
0.373373
0.075723
0.350583
0.0859038
0.321292
0.0967347
0.287365
0.111703
0.249252
0.13288
0.200614
0.190953
0.144217
0.178452
-0.172055
-0.112723
-0.147322
-0.120106
-0.116937
-0.145031
-0.0861895
-0.151718
-0.0542902
-0.158996
-0.0212466
-0.164999
0.0109648
-0.162539
0.0404109
-0.151327
0.0670979
-0.137912
0.0912163
-0.123784
0.112466
-0.108269
0.131192
-0.0942583
0.147894
-0.0823089
0.162793
-0.0716756
0.176206
-0.0631548
0.188394
-0.0560839
0.199536
-0.0505191
0.209815
-0.0461222
0.219425
-0.0429228
0.228505
-0.0403947
0.237146
-0.0385866
0.245389
-0.0369528
0.253196
-0.034981
0.260291
-0.0310002
0.266411
-0.0257655
0.271589
-0.0212512
0.275863
-0.0168565
0.279286
-0.0127425
0.281881
-0.00883723
0.283681
-0.00512743
0.284731
-0.00156066
0.285098
0.00185558
0.284788
0.005247
0.283786
0.0087072
0.282068
0.0125592
0.279301
0.0180986
0.274957
0.0259932
0.266412
0.0527252
0.248616
0.0919001
-0.192327
0.216847
-0.13351
0.241805
-0.137229
0.26961
-0.144814
0.294411
-0.131238
0.318573
-0.126972
0.342236
-0.119114
0.363551
-0.106286
0.383333
-0.0956259
0.401274
-0.0833746
0.417259
-0.0714727
0.431516
-0.0605392
0.443861
-0.0493952
0.454524
-0.0391474
0.4635
-0.0289987
0.47066
-0.0185593
0.476367
-0.00848093
0.480221
0.00263006
0.482345
0.0138346
0.482932
0.026511
0.48196
0.0395405
0.479666
0.0539497
0.476303
0.0666928
0.471602
0.076137
0.465102
0.0770703
0.456621
0.0683159
0.446785
0.0582023
0.436623
0.0537647
0.426768
0.0540003
0.417409
0.0569116
0.408709
0.0610414
0.400925
0.066345
0.393991
0.0733462
0.387015
0.0826994
0.377328
0.0955909
0.360643
0.11342
0.333406
0.13894
0.295016
0.17127
0.242429
0.24354
0.181245
0.239639
-0.167917
-0.137134
-0.142371
-0.145652
-0.11068
-0.176722
-0.0787916
-0.183606
-0.0458913
-0.191896
-0.0119201
-0.19897
0.0210107
-0.19547
0.0508214
-0.181137
0.0776177
-0.164708
0.101689
-0.147855
0.122791
-0.129371
0.141332
-0.112799
0.157911
-0.0988878
0.172791
-0.0865563
0.186281
-0.0766447
0.198639
-0.0684415
0.210027
-0.0619069
0.22064
-0.0567355
0.230605
-0.0528883
0.240052
-0.0498413
0.249071
-0.0476054
0.257683
-0.0455648
0.265834
-0.0431316
0.273337
-0.0385041
0.279862
-0.0322904
0.285397
-0.0267856
0.290033
-0.0214927
0.293768
-0.0164775
0.296644
-0.0117136
0.298694
-0.00717751
0.299962
-0.00282829
0.300476
0.00134151
0.300245
0.00547805
0.299293
0.00965872
0.297484
0.0143684
0.29458
0.0210022
0.289912
0.030662
0.281547
0.0610901
0.264165
0.109281
-0.190476
0.216324
-0.159358
0.242323
-0.163228
0.271694
-0.174184
0.297765
-0.15731
0.323175
-0.152382
0.347907
-0.143846
0.370379
-0.128758
0.390998
-0.116245
0.409968
-0.102344
0.426866
-0.0883707
0.441922
-0.0755958
0.455276
-0.0627487
0.466798
-0.0506697
0.476561
-0.038762
0.484639
-0.0266372
0.490862
-0.0147033
0.495419
-0.00192685
0.498303
0.0109506
0.499653
0.0251602
0.499565
0.0396291
0.498244
0.0552704
0.495749
0.0691876
0.491953
0.0799337
0.48611
0.0829131
0.478011
0.0764144
0.468144
0.06807
0.45745
0.0644579
0.446518
0.0649324
0.435481
0.0679486
0.424341
0.072182
0.413297
0.0773886
0.402703
0.0839404
0.39306
0.0923419
0.384587
0.104064
0.375928
0.12208
0.361789
0.153079
0.334139
0.19892
0.28531
0.292369
0.222091
0.30286
-0.164854
-0.162755
-0.138198
-0.172308
-0.10505
-0.209871
-0.0718458
-0.21681
-0.0377395
-0.226003
-0.00252168
-0.234188
0.0313952
-0.229387
0.061876
-0.211618
0.0890315
-0.191864
0.113272
-0.172095
0.134328
-0.150427
0.152747
-0.131218
0.169206
-0.115347
0.184007
-0.101357
0.197487
-0.0901248
0.209931
-0.0808851
0.22151
-0.0734857
0.232366
-0.0675914
0.242632
-0.0631551
0.252403
-0.0596117
0.261747
-0.0569501
0.27068
-0.0544969
0.279175
-0.0516268
0.286988
-0.0463168
0.293888
-0.0391911
0.299795
-0.0326923
0.304735
-0.0264326
0.308761
-0.0205036
0.31187
-0.0148231
0.314127
-0.00943369
0.315534
-0.00423533
0.316155
0.000720426
0.316004
0.00562847
0.315042
0.0106215
0.313226
0.0161843
0.31023
0.0239971
0.305359
0.0355343
0.296977
0.0694717
0.280108
0.126151
-0.189314
0.216498
-0.186542
0.243929
-0.190658
0.27498
-0.205236
0.302253
-0.184583
0.328952
-0.179081
0.354933
-0.169827
0.378423
-0.152248
0.400251
-0.138072
0.420037
-0.12213
0.437872
-0.106206
0.453985
-0.0917084
0.468216
-0.0769794
0.480645
-0.0630989
0.491401
-0.0495179
0.500429
-0.0356658
0.507709
-0.021983
0.513302
-0.00751992
0.5172
0.00705205
0.519379
0.0229819
0.519964
0.0390439
0.519179
0.0560555
0.51705
0.0713164
0.513501
0.0834827
0.508138
0.0882759
0.500595
0.0839576
0.491218
0.0774474
0.480827
0.0748484
0.46995
0.0758095
0.45866
0.0792388
0.446938
0.0839042
0.434697
0.0896296
0.422017
0.0966201
0.40906
0.105299
0.396426
0.116698
0.385032
0.133474
0.374774
0.163337
0.359231
0.214464
0.322942
0.328658
0.263927
0.361877
-0.162461
-0.189609
-0.134644
-0.200125
-0.0997805
-0.244734
-0.0650526
-0.251538
-0.0295086
-0.261547
0.00707727
-0.270773
0.0422148
-0.264525
0.0735848
-0.242988
0.101292
-0.219571
0.125842
-0.196644
0.146995
-0.17158
0.165357
-0.14958
0.181713
-0.131703
0.196409
-0.116054
0.209827
-0.103542
0.22231
-0.0933685
0.233975
-0.0851511
0.245005
-0.0786209
0.255496
-0.0736463
0.265543
-0.069658
0.275174
-0.0665811
0.284433
-0.0637567
0.293257
-0.0604503
0.301438
-0.0544985
0.30871
-0.0464629
0.314986
-0.038968
0.320282
-0.0317283
0.32463
-0.0248524
0.328022
-0.018215
0.330501
-0.0119125
0.332118
-0.0058521
0.332879
-4.07216e-05
0.332822
0.00568522
0.331911
0.0115322
0.330046
0.0180499
0.326949
0.0270933
0.32189
0.0405937
0.313386
0.0779759
0.297025
0.142511
-0.188985
0.217539
-0.215096
0.246418
-0.219537
0.27917
-0.237988
0.307833
-0.213246
0.336
-0.207247
0.363338
-0.197165
0.388047
-0.176958
0.410761
-0.160786
0.431659
-0.143028
0.450328
-0.124875
0.46715
-0.108531
0.482199
-0.0920279
0.495492
-0.0763925
0.50705
-0.0610756
0.516887
-0.0455023
0.525047
-0.0301437
0.531421
-0.0138937
0.536026
0.00244765
0.538925
0.0200824
0.540184
0.0377845
0.539987
0.0562531
0.538376
0.0729271
0.53525
0.0866092
0.530313
0.0932131
0.523286
0.0909843
0.51439
0.0863435
0.504312
0.0849266
0.493637
0.0864845
0.482496
0.0903794
0.470806
0.0955947
0.458502
0.101933
0.445485
0.109637
0.431604
0.11918
0.416794
0.131507
0.40144
0.148829
0.387024
0.177753
0.374556
0.226932
0.351095
0.35212
0.301998
0.410975
-0.160642
-0.217952
-0.131469
-0.229298
-0.0948254
-0.281378
-0.05853
-0.287834
-0.0213307
-0.298746
0.0168391
-0.308943
0.0534506
-0.301136
0.0858813
-0.275419
0.114322
-0.248012
0.139353
-0.221675
0.160722
-0.192949
0.179129
-0.167987
0.19543
-0.148005
0.210032
-0.130656
0.223369
-0.116879
0.235801
-0.1058
0.247516
-0.0968664
0.258648
-0.0897523
0.269303
-0.0843022
0.279574
-0.0799283
0.289493
-0.0765
0.299024
-0.0732882
0.308153
-0.0695795
0.316684
-0.0630293
0.324342
-0.0541208
0.330967
-0.0455927
0.336614
-0.0373754
0.341258
-0.0294965
0.344944
-0.0219011
0.347669
-0.0146374
0.349467
-0.00764993
0.350378
-0.000952127
0.3504
0.00566341
0.349529
0.0124035
0.347662
0.0199168
0.344491
0.0302633
0.339256
0.0458297
0.330725
0.0865071
0.314946
0.15829
-0.189085
0.219252
-0.245263
0.249681
-0.249966
0.284327
-0.272633
0.31445
-0.243369
0.343908
-0.236706
0.37272
-0.225977
0.398603
-0.202841
0.422458
-0.184641
0.444344
-0.164914
0.463896
-0.144427
0.481578
-0.126213
0.497509
-0.107959
0.51152
-0.0904027
0.523809
-0.0733647
0.534525
-0.0562183
0.54341
-0.0390288
0.550591
-0.0210753
0.555969
-0.00292953
0.559683
0.0163683
0.561703
0.0357647
0.562019
0.0559369
0.560881
0.0740647
0.558121
0.0893693
0.553546
0.0977876
0.546893
0.0976375
0.538293
0.0949438
0.528437
0.0947828
0.517859
0.0970623
0.50667
0.101568
0.49494
0.107325
0.482587
0.114286
0.46952
0.122704
0.455579
0.133122
0.440473
0.146613
0.423863
0.165439
0.405668
0.195949
0.389518
0.243082
0.371663
0.369975
0.33232
0.450319
-0.159367
-0.24767
-0.128726
-0.259938
-0.0901195
-0.319985
-0.0519626
-0.325991
-0.0130747
-0.337634
0.0269367
-0.348955
0.0650902
-0.33929
0.0987687
-0.309098
0.128114
-0.277358
0.153794
-0.247355
0.1755
-0.214654
0.194022
-0.18651
0.210335
-0.164317
0.224864
-0.145185
0.23811
-0.130124
0.250482
-0.118173
0.262176
-0.10856
0.273348
-0.100925
0.284139
-0.0950929
0.294582
-0.0903716
0.304689
-0.0866067
0.314501
-0.0830998
0.323936
-0.0790153
0.332798
-0.0718907
0.340804
-0.0621271
0.347813
-0.0526019
0.353792
-0.0433543
0.358779
-0.0344837
0.362749
-0.0258708
0.365727
-0.0176153
0.367751
-0.00967446
0.368808
-0.00200857
0.368951
0.00552012
0.368138
0.013217
0.366252
0.0218023
0.36299
0.0335256
0.357632
0.0511879
0.349089
0.0950496
0.333869
0.173509
-0.189793
0.221533
-0.277003
0.253544
-0.281976
0.290121
-0.309211
0.321926
-0.275174
0.353002
-0.267782
0.38329
-0.256265
0.410323
-0.229874
0.43541
-0.209727
0.458335
-0.187839
0.478832
-0.164924
0.497312
-0.144693
0.513885
-0.124533
0.528702
-0.105219
0.541843
-0.0865056
0.553158
-0.0675332
0.562827
-0.0486977
0.570734
-0.0289827
0.576896
-0.00909198
0.581249
0.0120157
0.583889
0.033125
0.584832
0.0549937
0.584124
0.0747721
0.581777
0.0917163
0.57761
0.101955
0.571385
0.103862
0.563207
0.103122
0.553567
0.104422
0.542998
0.107632
0.531767
0.1128
0.519821
0.11927
0.507223
0.126884
0.493931
0.135996
0.479811
0.147242
0.464625
0.161798
0.447981
0.182083
0.428826
0.215105
0.408653
0.263255
0.390184
0.388445
0.355325
0.485179
-0.1584
-0.279063
-0.126248
-0.292089
-0.0855633
-0.36067
-0.0454714
-0.366083
-0.00461564
-0.378489
0.0372718
-0.390842
0.0771965
-0.379215
0.112274
-0.344175
0.142693
-0.307777
0.1691
-0.273762
0.191281
-0.236836
0.210028
-0.205257
0.226424
-0.180713
0.240914
-0.159676
0.25408
-0.14329
0.266368
-0.130461
0.278012
-0.120205
0.289201
-0.112113
0.300031
-0.105923
0.310595
-0.100936
0.320913
-0.0969245
0.330952
-0.0931388
0.340646
-0.0887098
0.349838
-0.0810824
0.358195
-0.0704845
0.365557
-0.0599633
0.371903
-0.0497002
0.377211
-0.0397917
0.381495
-0.0301548
0.384733
-0.0208535
0.386956
-0.0118972
0.388205
-0.00325809
0.388455
0.00527077
0.387705
0.0139664
0.385811
0.0236965
0.382497
0.0368389
0.377005
0.0566804
0.368473
0.103582
0.353879
0.188103
-0.190813
0.224354
-0.310544
0.258125
-0.315748
0.296744
-0.34783
0.330155
-0.308585
0.362847
-0.300474
0.394723
-0.28814
0.423265
-0.258416
0.449491
-0.235953
0.473495
-0.211843
0.494902
-0.186331
0.514285
-0.164076
0.53173
-0.141977
0.547172
-0.120661
0.560944
-0.100278
0.573041
-0.0796304
0.583406
-0.0590627
0.591979
-0.0375554
0.598778
-0.0158912
0.6038
0.00699458
0.607088
0.029837
0.608621
0.0534605
0.60844
0.0749532
0.606516
0.0936399
0.602739
0.105733
0.596914
0.109687
0.589117
0.110919
0.579732
0.113807
0.569282
0.118082
0.557963
0.124119
0.54585
0.131383
0.532954
0.139781
0.519271
0.149679
0.504762
0.16175
0.489202
0.177358
0.472371
0.198913
0.453385
0.234091
0.431403
0.285237
0.410408
0.409441
0.376009
0.519579
-0.157778
-0.312098
-0.123897
-0.32597
-0.0810743
-0.403493
-0.0388861
-0.408271
0.00401644
-0.421392
0.0479582
-0.434784
0.0898338
-0.42109
0.126417
-0.380758
0.158018
-0.339377
0.185334
-0.301078
0.2081
-0.259601
0.22717
-0.224328
0.243682
-0.197224
0.258193
-0.174188
0.271299
-0.156395
0.283509
-0.142671
0.295072
-0.131768
0.306223
-0.123264
0.317092
-0.116792
0.327728
-0.111572
0.338173
-0.10737
0.348398
-0.103364
0.358371
-0.0986825
0.367865
-0.0905762
0.376562
-0.0791818
0.384278
-0.0676787
0.390963
-0.0563855
0.396618
-0.0454469
0.401186
-0.0347224
0.404708
-0.0243754
0.407167
-0.0143563
0.408585
-0.00467662
0.40898
0.0048756
0.408284
0.0146629
0.406407
0.025573
0.40303
0.0402159
0.397432
0.0622793
0.388973
0.11204
0.375014
0.202061
-0.192322
0.227577
-0.345799
0.263212
-0.351383
0.303992
-0.38861
0.339259
-0.343852
0.373707
-0.334922
0.407228
-0.321661
0.437194
-0.288382
0.46476
-0.26352
0.489832
-0.236915
0.512231
-0.20873
0.532458
-0.184303
0.550648
-0.160168
0.566917
-0.13693
0.581404
-0.114765
0.594125
-0.0923521
0.605093
-0.0700301
0.61434
-0.0468024
0.621826
-0.023377
0.627481
0.00133956
0.631292
0.0260254
0.63337
0.0513828
0.633645
0.0746778
0.632145
0.0951404
0.62882
0.109058
0.623495
0.115012
0.616091
0.118323
0.607016
0.122883
0.59668
0.128418
0.58534
0.135459
0.573088
0.143635
0.55994
0.152929
0.545886
0.163733
0.530881
0.176756
0.514775
0.193464
0.497391
0.216298
0.478303
0.253179
0.455983
0.307558
0.433184
0.432239
0.398459
0.554305
-0.157369
-0.347051
-0.121823
-0.361517
-0.0766304
-0.448685
-0.0322469
-0.452654
0.0129036
-0.466542
0.0591152
-0.480995
0.102964
-0.464939
0.141257
-0.419051
0.174163
-0.372284
0.202493
-0.329408
0.225938
-0.283047
0.245418
-0.243807
0.262165
-0.213971
0.276746
-0.188769
0.289821
-0.16947
0.301957
-0.154807
0.313439
-0.143249
0.324526
-0.134351
0.335366
-0.127632
0.346048
-0.122255
0.356586
-0.117907
0.366986
-0.113764
0.377172
-0.108869
0.386961
-0.100366
0.395976
-0.0881965
0.404032
-0.0757344
0.411061
-0.0634152
0.417026
-0.0514112
0.421918
-0.0396146
0.425718
-0.0281754
0.428423
-0.0170615
0.430048
-0.0063015
0.430574
0.0043496
0.429969
0.0152684
0.428098
0.0274433
0.424699
0.0436151
0.419023
0.067956
0.410601
0.120462
0.397322
0.21534
-0.19407
0.231272
-0.383002
0.268874
-0.388984
0.311957
-0.431693
0.349118
-0.381013
0.385353
-0.371157
0.420637
-0.356945
0.452155
-0.319901
0.481042
-0.292406
0.507352
-0.263226
0.530755
-0.232132
0.551955
-0.205502
0.570939
-0.179152
0.587928
-0.153919
0.603097
-0.129934
0.61637
-0.105625
0.628025
-0.0816847
0.637895
-0.0566719
0.645968
-0.0314507
0.652248
-0.00494051
0.65668
0.0215934
0.659261
0.0488019
0.660035
0.0739045
0.658981
0.0961943
0.656068
0.11197
0.651157
0.119922
0.644161
0.12532
0.635419
0.131625
0.62527
0.138567
0.613951
0.146778
0.601586
0.156
0.588197
0.166317
0.573813
0.178118
0.55834
0.192228
0.541703
0.210101
0.523647
0.234354
0.503995
0.272831
0.481467
0.330086
0.457923
0.455784
0.42344
0.588789
-0.157332
-0.383789
-0.119741
-0.399107
-0.072165
-0.496262
-0.0254025
-0.499417
0.0220666
-0.514012
0.070616
-0.529545
0.116733
-0.511057
0.156818
-0.459136
0.191202
-0.406667
0.220645
-0.358851
0.244881
-0.307283
0.264843
-0.263769
0.281878
-0.231007
0.296575
-0.203466
0.309647
-0.182542
0.321737
-0.166897
0.333145
-0.154657
0.344137
-0.145343
0.354932
-0.138426
0.365623
-0.132946
0.376226
-0.12851
0.386743
-0.124281
0.397138
-0.119264
0.407184
-0.110412
0.416498
-0.0975099
0.424876
-0.0841132
0.43224
-0.0707788
0.438546
-0.0577176
0.443752
-0.0448199
0.447836
-0.03226
0.450785
-0.0200104
0.452603
-0.00811899
0.453287
0.00366483
0.452774
0.0157818
0.450936
0.0292815
0.447507
0.0470435
0.441786
0.0736776
0.433489
0.128758
0.420864
0.227966
-0.196125
0.235436
-0.422313
0.275065
-0.428613
0.320563
-0.477191
0.359684
-0.420134
0.397856
-0.409328
0.435098
-0.394187
0.46815
-0.352953
0.498487
-0.322743
0.526162
-0.290901
0.550674
-0.256645
0.57277
-0.227597
0.592611
-0.198993
0.610241
-0.171549
0.626096
-0.145789
0.640128
-0.119658
0.652354
-0.0939105
0.662825
-0.0671428
0.67146
-0.0400856
0.678206
-0.0116868
0.683161
0.016639
0.68628
0.0456822
0.687471
0.0727141
0.686857
0.0968079
0.684382
0.114445
0.679929
0.124375
0.673405
0.131844
0.664964
0.140065
0.655018
0.148513
0.643792
0.158004
0.631351
0.16844
0.617775
0.179893
0.603066
0.192828
0.587214
0.20808
0.570052
0.227262
0.551342
0.253064
0.530946
0.293227
0.507978
0.353053
0.484038
0.479724
0.450414
0.622414
-0.157382
-0.422532
-0.117909
-0.43858
-0.0676693
-0.546501
-0.0184186
-0.548667
0.0315457
-0.563976
0.0826675
-0.580667
0.131082
-0.559471
0.173153
-0.501207
0.209066
-0.442581
0.239779
-0.389564
0.264879
-0.332382
0.28545
-0.28434
0.302847
-0.248404
0.317726
-0.218344
0.330857
-0.195674
0.342901
-0.178941
0.354224
-0.165981
0.36515
-0.156269
0.375874
-0.14915
0.386528
-0.143599
0.397158
-0.139141
0.407786
-0.134909
0.41835
-0.129827
0.428626
-0.120689
0.438237
-0.10712
0.446919
-0.092796
0.454604
-0.0784632
0.461221
-0.0643341
0.466738
-0.0503375
0.471099
-0.0366204
0.47431
-0.0232222
0.476357
-0.0101658
0.477186
0.00283556
0.476792
0.0161764
0.475004
0.0310696
0.471564
0.0504825
0.465825
0.0794173
0.457626
0.136957
0.445697
0.239894
-0.198543
0.240016
-0.463786
0.281777
-0.470374
0.329793
-0.525208
0.370985
-0.461326
0.411279
-0.449622
0.450482
-0.43339
0.485245
-0.387716
0.517145
-0.354644
0.546123
-0.319878
0.571739
-0.282261
0.594837
-0.250695
0.615563
-0.219719
0.634072
-0.190059
0.650565
-0.162282
0.665192
-0.134285
0.678003
-0.106722
0.689022
-0.0781612
0.698201
-0.0492651
0.705573
-0.0190584
0.711001
0.0112103
0.714545
0.0421388
0.716227
0.0710319
0.716007
0.0970279
0.713949
0.116503
0.709917
0.128407
0.703817
0.137943
0.695765
0.148117
0.686051
0.158227
0.674902
0.169153
0.662422
0.180921
0.648693
0.193621
0.633722
0.207799
0.617458
0.224344
0.599807
0.244913
0.580534
0.272338
0.559449
0.314313
0.53579
0.376712
0.511431
0.504083
0.478838
0.655008
-0.157632
-0.463442
-0.116011
-0.480202
-0.0630647
-0.599447
-0.0111809
-0.600551
0.0414332
-0.61659
0.0952475
-0.634481
0.146166
-0.61039
0.190316
-0.545357
0.227935
-0.4802
0.259978
-0.421606
0.286077
-0.358481
0.307299
-0.305563
0.325119
-0.266224
0.340242
-0.233467
0.353462
-0.208894
0.365512
-0.19099
0.376768
-0.177237
0.387603
-0.167104
0.398248
-0.159795
0.408858
-0.154209
0.419484
-0.149766
0.430165
-0.14559
0.440875
-0.140537
0.451387
-0.131201
0.461246
-0.116979
0.47021
-0.10176
0.478199
-0.0864519
0.485128
-0.0712634
0.490953
-0.0561629
0.495615
-0.0412824
0.499086
-0.0266926
0.501332
-0.0124127
0.502357
0.00181049
0.50207
0.0164636
0.500347
0.0327925
0.496921
0.0539089
0.49118
0.0851585
0.483141
0.144996
0.471929
0.251105
-0.201169
0.244866
-0.507482
0.288959
-0.514467
0.339661
-0.57591
0.383091
-0.504757
0.42555
-0.492081
0.466792
-0.474632
0.503417
-0.42434
0.536934
-0.388161
0.567299
-0.350243
0.594155
-0.309117
0.618393
-0.274933
0.639982
-0.241309
0.659265
-0.209341
0.676493
-0.17951
0.691723
-0.149514
0.705135
-0.120134
0.716688
-0.0897143
0.726418
-0.0589951
0.734231
-0.0268714
0.740174
0.00526682
0.744156
0.0381574
0.746221
0.0689673
0.746438
0.0968101
0.744782
0.11816
0.741209
0.13198
0.73552
0.143632
0.72783
0.155807
0.718375
0.167683
0.707337
0.180191
0.69487
0.193388
0.681008
0.207483
0.665791
0.223016
0.649175
0.240959
0.631059
0.263028
0.611258
0.29214
0.589504
0.336066
0.56517
0.401046
0.540272
0.528981
0.508575
0.686704
-0.158034
-0.506578
-0.114198
-0.524037
-0.0583807
-0.655265
-0.00365954
-0.655272
0.051734
-0.671983
0.108362
-0.691108
0.161991
-0.664019
0.208332
-0.591699
0.24779
-0.519658
0.281279
-0.455095
0.308431
-0.385633
0.330397
-0.327529
0.348738
-0.284565
0.364153
-0.248883
0.377512
-0.222253
0.389606
-0.203084
0.400826
-0.188457
0.411584
-0.177862
0.422142
-0.170353
0.432675
-0.164743
0.443287
-0.160378
0.454003
-0.156306
0.464827
-0.151362
0.475513
-0.141886
0.485602
-0.127069
0.494847
-0.111005
0.50312
-0.0947253
0.510361
-0.0785045
0.516475
-0.0622762
0.521425
-0.0462333
0.525157
-0.0304242
0.527651
-0.0149071
0.528845
0.000617224
0.52868
0.0166283
0.527044
0.0344285
0.523641
0.0573115
0.517959
0.0908415
0.510073
0.152881
0.499548
0.26163
-0.204117
0.250218
-0.553583
0.296754
-0.561003
0.350148
-0.629303
0.396045
-0.550654
0.440678
-0.536714
0.484195
-0.518148
0.522673
-0.462819
0.557912
-0.423399
0.589824
-0.382155
0.617994
-0.337287
0.643223
-0.300163
0.665855
-0.26394
0.685908
-0.229394
0.703858
-0.19746
0.719823
-0.165479
0.733773
-0.134085
0.745898
-0.101839
0.756116
-0.0692134
0.764456
-0.0352119
0.770807
-0.00108385
0.775201
0.0337638
0.77771
0.0664583
0.778259
0.0962608
0.776997
0.119421
0.773813
0.135165
0.768538
0.148907
0.761235
0.16311
0.752062
0.176856
0.741218
0.191035
0.728766
0.205839
0.714807
0.221443
0.699362
0.238461
0.682411
0.257911
0.663873
0.281565
0.643507
0.312507
0.621199
0.358374
0.59622
0.426025
0.57068
0.554521
0.539758
0.717627
-0.158637
-0.552058
-0.112417
-0.570256
-0.0535139
-0.714169
0.00411839
-0.712905
0.0625078
-0.730373
0.122152
-0.750752
0.178527
-0.720395
0.2273
-0.640471
0.268671
-0.561028
0.303755
-0.490179
0.332074
-0.413952
0.35487
-0.350325
0.373775
-0.303469
0.389543
-0.26465
0.403098
-0.235808
0.415243
-0.215229
0.426467
-0.199681
0.437145
-0.18854
0.447615
-0.180823
0.458071
-0.175198
0.468636
-0.170943
0.479366
-0.167036
0.490286
-0.162281
0.501137
-0.152738
0.511442
-0.137374
0.520918
-0.120481
0.529454
-0.103261
0.536966
-0.0860162
0.543383
-0.0686928
0.548606
-0.0514563
0.552613
-0.0344319
0.555323
-0.0176171
0.556723
-0.000782812
0.556722
0.0166298
0.555151
0.0359997
0.551836
0.0606263
0.546203
0.0964747
0.538549
0.160535
0.52872
0.27146
-0.207294
0.255926
-0.602215
0.304937
-0.610014
0.3614
-0.685765
0.409615
-0.598869
0.456772
-0.583872
0.502559
-0.563936
0.543149
-0.503409
0.580124
-0.460374
0.613625
-0.415655
0.643132
-0.366795
0.669645
-0.326676
0.693212
-0.287507
0.71421
-0.250392
0.732918
-0.216168
0.749514
-0.182075
0.764082
-0.148654
0.776716
-0.114473
0.787402
-0.079899
0.796149
-0.0439592
0.802942
-0.00787602
0.807773
0.0289322
0.810583
0.0636486
0.811504
0.0953395
0.810633
0.120293
0.807839
0.137959
0.803007
0.153739
0.796076
0.17004
0.787182
0.185751
0.776493
0.201723
0.764127
0.218205
0.750109
0.235461
0.734475
0.254094
0.717223
0.275163
0.698268
0.30052
0.677422
0.333353
0.654548
0.381249
0.628999
0.451574
0.602855
0.580665
0.572573
0.747909
-0.159343
-0.60001
-0.110618
-0.618981
-0.0484943
-0.776293
0.0122094
-0.773608
0.073742
-0.791905
0.136579
-0.81359
0.195964
-0.77978
0.247218
-0.691725
0.290665
-0.604476
0.327409
-0.526923
0.356999
-0.443542
0.380712
-0.374039
0.400252
-0.323009
0.416446
-0.280845
0.43024
-0.249603
0.442502
-0.227491
0.453727
-0.210905
0.464363
-0.199176
0.474748
-0.191208
0.485142
-0.185593
0.495634
-0.181435
0.506371
-0.177772
0.517348
-0.173259
0.528339
-0.163729
0.538834
-0.147869
0.548514
-0.130161
0.557313
-0.112061
0.565089
-0.0937926
0.571759
-0.0753627
0.577285
-0.0569819
0.581543
-0.0386898
0.584499
-0.0205734
0.586077
-0.00236067
0.586228
0.0164784
0.584795
0.0374324
0.581543
0.0638782
0.576037
0.101982
0.568591
0.16798
0.559467
0.280583
-0.21076
0.262012
-0.653467
0.313699
-0.661701
0.373217
-0.745284
0.424156
-0.649808
0.473761
-0.633476
0.522081
-0.612256
0.564694
-0.546021
0.603625
-0.499306
0.638828
-0.450857
0.669824
-0.397791
0.697518
-0.35437
0.722241
-0.31223
0.744124
-0.272274
0.763629
-0.235673
0.780867
-0.199313
0.796073
-0.163859
0.809208
-0.127609
0.820364
-0.0910549
0.82959
-0.0531853
0.836756
-0.015042
0.84192
0.0237686
0.845093
0.0604754
0.846346
0.0940864