/*--------------------------------*- C++ -*----------------------------------*\
| =========                 |                                                 |
| \\      /  F ield         | OpenFOAM: The Open Source CFD Toolbox           |
|  \\    /   O peration     | Version:  2312                                  |
|   \\  /    A nd           | Website:  www.openfoam.com                      |
|    \\/     M anipulation  |                                                 |
\*---------------------------------------------------------------------------*/
FoamFile
{
    version     2.0;
    format      ascii;
    arch        "LSB;label=32;scalar=64";
    class       volSymmTensorField;
    location    "450";
    object      turbulenceProperties:R;
}
// * * * * * * * * * * * * * * * * * * * * * * * * * * * * * * * * * * * * * //

dimensions      [0 2 -2 0 0 0 0];

internalField   nonuniform List<symmTensor> 
10720
(
(0.0144987 0.00306873 -1.20056e-21 0.0120403 -4.48843e-20 0.0134172)
(0.0172865 0.00364566 8.00949e-22 0.0136446 5.0919e-20 0.0155753)
(0.0210786 0.00423413 1.24081e-20 0.0153257 5.24679e-20 0.0184315)
(0.0262503 0.00499591 6.03318e-20 0.0176186 4.92397e-19 0.022231)
(0.0326215 0.00571447 -2.53293e-19 0.0200522 -1.01478e-18 0.0266719)
(0.0409537 0.00622483 -3.09929e-19 0.0227817 -6.31731e-19 0.032371)
(0.0517328 0.00649513 1.12441e-19 0.026117 1.08656e-20 0.0395673)
(0.0651912 0.00618099 6.25534e-20 0.0300846 9.8908e-20 0.0484254)
(0.0821901 0.00491638 1.66109e-19 0.0351309 -1.34177e-19 0.0596893)
(0.10357 0.00243288 -2.5925e-20 0.0419321 -2.60103e-20 0.0740117)
(0.130614 -0.00179553 3.01555e-18 0.0513612 1.21577e-18 0.0925365)
(0.165468 -0.00835548 -7.26381e-19 0.0647915 -5.57884e-19 0.117021)
(0.211089 -0.0181758 1.48301e-18 0.0840947 -2.22659e-18 0.1499)
(0.272352 -0.032849 7.29141e-19 0.112291 1.56447e-18 0.195175)
(0.357551 -0.0550343 1.152e-18 0.154535 -2.04239e-18 0.259668)
(0.479503 -0.0890627 4.74241e-19 0.219189 7.23074e-18 0.354037)
(0.663283 -0.143542 3.65934e-17 0.322812 1.94837e-17 0.49944)
(0.940194 -0.230775 -1.02888e-17 0.488981 1.38416e-17 0.723346)
(1.41739 -0.387138 -4.13303e-18 0.789744 -6.70816e-17 1.11643)
(2.14077 -0.639971 2.21873e-18 1.2781 -4.32581e-19 1.72765)
(3.75091 -1.21247 -6.58734e-17 2.39982 -8.95933e-17 3.10442)
(6.10093 -2.11291 1.57313e-16 4.18513 4.76845e-16 5.18218)
(13.8361 -5.12748 -2.57274e-16 10.2536 -9.31307e-16 12.1231)
(25.9896 -10.3101 4.53007e-16 21.0497 1.24263e-16 23.6446)
(27.6373 -11.6464 -2.48581e-16 24.5398 -1.19274e-17 26.1501)
(25.5064 -11.2289 2.09858e-17 24.465 -1.28037e-15 24.9687)
(24.4031 -11.0457 2.70079e-16 24.7244 -6.42495e-17 24.5192)
(24.3341 -11.2291 1.9552e-16 25.6885 4.12436e-16 24.9743)
(24.4196 -11.443 1.14982e-15 26.7084 5.60153e-16 25.5395)
(24.1249 -11.4556 1.04818e-15 27.2766 4.51076e-15 25.6883)
(23.3977 -11.2409 -2.01194e-15 27.3117 -1.73964e-15 25.3573)
(22.3245 -10.8342 -2.17672e-15 26.8611 -3.02246e-15 24.6086)
(20.881 -10.2205 -9.24756e-16 25.8532 -3.97057e-15 23.3895)
(19.0959 -9.41366 -2.96449e-15 24.2907 -5.58102e-15 21.7164)
(16.951 -8.40538 1.07406e-15 22.1151 2.92167e-15 19.5543)
(14.5075 -7.22667 1.80069e-16 19.3669 2.16248e-15 16.9537)
(11.3438 -5.67306 -4.60169e-17 15.4782 3.65162e-18 13.4312)
(8.33007 -4.17124 -1.78664e-15 11.5012 -1.07461e-16 9.91823)
(1.83917 -0.926548 -3.59675e-16 2.78497 -1.68904e-15 2.31089)
(0.01203 0.00257344 8.65955e-22 0.0106522 -3.09846e-21 0.011395)
(0.0101308 0.0021244 -4.47492e-21 0.00934044 4.54507e-21 0.00982533)
(0.0080831 0.00164665 -2.32772e-20 0.00782726 -1.61892e-20 0.00799971)
(0.00638587 0.00123967 2.2704e-20 0.0064452 -3.24241e-20 0.0064459)
(0.00486369 0.000879179 -2.59247e-20 0.005051 -2.57566e-20 0.00497245)
(0.00355261 0.000586707 -1.2123e-19 0.00372633 1.47213e-19 0.00363917)
(0.00253012 0.000377464 3.68608e-20 0.00261694 1.23423e-19 0.00255719)
(0.00194574 0.000261404 -1.77868e-20 0.00191624 -1.59915e-19 0.00190778)
(0.00211346 0.000277939 8.97902e-20 0.00191824 2.1963e-21 0.00199814)
(0.00295785 0.000385225 -7.69161e-20 0.00247031 -2.21214e-20 0.00271152)
(0.00451445 0.000623824 7.74619e-20 0.00352085 1.86739e-19 0.00402735)
(0.00693532 0.00109498 1.82193e-19 0.00509624 -8.5301e-20 0.00603464)
(0.010512 0.00197149 -2.02508e-19 0.00732822 -5.83336e-20 0.00895545)
(0.0156729 0.00349526 1.35771e-20 0.0104665 9.61925e-20 0.0131347)
(0.0229296 0.00591754 8.38272e-19 0.0148956 1.78221e-19 0.0190127)
(0.0330185 0.00952976 8.31548e-19 0.0213045 -1.7556e-19 0.0273118)
(0.04726 0.0147526 3.85358e-19 0.0308194 6.00879e-19 0.039246)
(0.0681599 0.0224734 2.84069e-19 0.0454429 6.03705e-19 0.0570866)
(0.100399 0.0344355 3.04251e-19 0.0687665 -1.71861e-19 0.0849739)
(0.152285 0.0539243 5.79611e-19 0.107412 2.53739e-20 0.130423)
(0.240272 0.0874856 -8.77711e-19 0.174649 -5.32369e-18 0.208336)
(0.393914 0.147342 -3.1047e-18 0.29558 -1.02225e-19 0.346204)
(0.682855 0.262513 2.95395e-18 0.530389 5.21407e-18 0.609276)
(1.22835 0.486479 2.13463e-18 0.992771 -5.64111e-19 1.116)
(2.39607 0.978117 7.46127e-17 2.02225 -1.51406e-17 2.22091)
(4.8035 2.01626 -1.11652e-18 4.23163 -1.16174e-17 4.54211)
(10.5254 4.53134 1.98003e-19 9.66712 7.29779e-18 10.154)
(21.265 9.36763 2.27211e-18 20.3425 -6.98039e-20 20.9242)
(29.5451 13.2906 3.31532e-19 29.4247 4.4898e-21 29.6411)
(32.6387 14.9584 3.64859e-16 33.7977 5.0872e-18 33.3657)
(33.0578 15.3972 -4.20068e-18 35.511 -2.17065e-19 34.4078)
(32.6456 15.4171 -2.6453e-17 36.2844 3.60779e-17 34.566)
(31.9228 15.2549 -2.24289e-15 36.6213 -1.86755e-16 34.3557)
(30.9818 14.9549 -4.02477e-15 36.6007 -2.58937e-16 33.8616)
(29.8496 14.5327 3.58593e-15 36.2458 3.91296e-16 33.1082)
(28.5629 14.0096 -2.69028e-17 35.6023 1.37025e-16 32.1355)
(26.9098 13.2866 1.36067e-18 34.4276 -5.27311e-16 30.7168)
(25.1172 12.4694 -1.93937e-16 32.9255 2.82927e-16 29.0663)
(20.1427 10.0654 -3.51028e-15 27.4157 1.25572e-16 23.7891)
(0.00226707 -0.000155249 -1.39697e-21 0.00189642 -4.27565e-21 0.00205172)
(0.00222406 -0.000181972 2.50757e-21 0.00191883 5.67756e-21 0.00203798)
(0.00215863 -0.000204454 -1.10589e-22 0.00194119 1.59251e-23 0.00201037)
(0.00205931 -0.00021172 5.10305e-21 0.0019265 7.58007e-22 0.00194814)
(0.00192972 -0.000206755 3.44484e-21 0.00187661 2.99354e-20 0.00185481)
(0.00178982 -0.00019331 2.25501e-20 0.00180978 3.94323e-20 0.00174787)
(0.00164015 -0.000173016 -1.11863e-20 0.00171467 1.80135e-21 0.00162238)
(0.00148395 -0.000149084 -9.35224e-21 0.00159447 -2.45554e-21 0.00148233)
(0.00133653 -0.000125537 -5.24499e-20 0.001468 -5.79403e-20 0.00134398)
(0.00119891 -0.000104531 -1.7561e-20 0.00133681 -5.78511e-21 0.00120848)
(0.00107268 -8.69447e-05 -1.52979e-19 0.00120611 -1.49429e-19 0.00107993)
(0.000987017 -7.80231e-05 -1.90451e-21 0.00111434 2.61245e-20 0.00098911)
(0.000976206 -8.37155e-05 -9.65199e-20 0.00110639 2.84933e-21 0.00096918)
(0.00107581 -0.000114016 8.99756e-20 0.00122303 5.34745e-20 0.00104862)
(0.00141246 -0.000214135 -3.28028e-19 0.00159267 -9.56497e-20 0.00132274)
(0.00229554 -0.000517949 1.51649e-18 0.00244953 3.67556e-19 0.00199412)
(0.00462229 -0.00138345 -2.99098e-18 0.00434249 -2.59954e-18 0.00368175)
(0.0101293 -0.00334426 -5.41213e-18 0.00824341 -2.19284e-18 0.00776877)
(0.0250057 -0.00841513 -1.15618e-17 0.018466 4.87647e-18 0.0193093)
(0.0614935 -0.0208074 2.30411e-18 0.0434108 -2.01683e-20 0.0486401)
(0.180665 -0.0621362 2.17268e-17 0.126454 3.20564e-17 0.146987)
(0.491896 -0.174088 -4.15377e-17 0.350459 -1.2646e-16 0.411883)
(1.47997 -0.54546 -2.21485e-18 1.09738 2.27619e-16 1.27699)
(4.6192 -1.78228 5.21675e-18 3.61384 -8.73717e-17 4.11241)
(8.79466 -3.54044 -0 7.27566 -0 8.07075)
(12.8986 -5.3873 -2.5576e-17 11.2665 6.07248e-16 12.164)
(16.5438 -7.14387 -6.817e-17 15.2654 4.68792e-17 16.0122)
(18.8601 -8.39085 -1.10639e-16 18.3761 -4.75752e-16 18.7312)
(18.9016 -8.63419 -9.74122e-16 19.4269 -2.62802e-15 19.2631)
(16.9076 -7.89661 3.87804e-16 18.2808 -8.29533e-15 17.6559)
(14.0809 -6.69156 -1.09069e-16 15.9352 5.63877e-15 15.0205)
(11.3786 -5.47768 -3.38864e-16 13.3933 7.3907e-15 12.3587)
(9.25514 -4.49789 -2.19867e-15 11.2536 4.27016e-15 10.2097)
(7.67076 -3.75314 6.4811e-15 9.5619 1.54318e-14 8.57186)
(6.47958 -3.18613 -4.13371e-16 8.23109 -2.76516e-15 7.31931)
(5.56386 -2.74328 6.23843e-15 7.1474 -3.6746e-15 6.3249)
(4.91709 -2.43212 -2.24014e-16 6.39213 4.92583e-17 5.63455)
(4.36046 -2.13694 3.17447e-15 5.51646 7.05156e-16 4.88552)
(4.49711 -2.25504 5.72203e-15 5.98264 6.56155e-15 5.37331)
(0.00227291 -0.000117567 1.62863e-21 0.00184999 5.33023e-21 0.00203577)
(0.00226157 -7.7637e-05 -1.06017e-21 0.00180466 -2.2658e-20 0.00200877)
(0.00221 -2.67192e-05 -1.44032e-20 0.0017391 -4.80015e-20 0.00195512)
(0.00211612 3.07934e-05 2.6916e-21 0.00166073 6.90679e-20 0.00187426)
(0.00197222 8.48927e-05 3.23531e-20 0.00156958 -3.04861e-20 0.00176326)
(0.00177352 0.000127801 -9.32118e-21 0.00146038 -5.07195e-20 0.00161494)
(0.00153865 0.000150826 5.11494e-20 0.00133585 -1.10761e-19 0.00143915)
(0.00131418 0.000152955 -8.77447e-20 0.0012122 -1.18884e-20 0.0012683)
(0.00111352 0.000139696 -4.79126e-20 0.00109252 1.08905e-19 0.00110891)
(0.000921923 0.000116356 -1.43849e-20 0.000968416 -5.49492e-21 0.000948604)
(0.000751498 8.77024e-05 -2.32062e-20 0.000839678 -5.31494e-20 0.000794821)
(0.000614981 6.18777e-05 4.69525e-21 0.000717194 -2.7548e-20 0.000661715)
(0.000506782 4.2146e-05 1.83313e-20 0.000605966 4.70714e-20 0.000549865)
(0.000418993 2.82119e-05 -1.5489e-20 0.000507055 -1.05438e-20 0.000455565)
(0.000346715 1.88844e-05 -8.61027e-21 0.000420698 -3.08382e-20 0.00037605)
(0.000286783 1.28387e-05 -2.89233e-20 0.000346637 -8.83091e-21 0.000309375)
(0.000236368 8.97551e-06 -4.74084e-21 0.000283086 -6.20696e-23 0.000253106)
(0.000193789 6.45644e-06 -2.73157e-22 0.000228972 -2.45945e-21 0.000205738)
(0.000156382 4.61661e-06 -2.29842e-21 0.000181427 1.65567e-21 0.000164439)
(0.000121922 3.10752e-06 3.06979e-21 0.000138142 -1.04863e-21 0.000126849)
(8.72589e-05 1.73924e-06 -1.15977e-20 9.58644e-05 8.58267e-21 8.97092e-05)
(5.2449e-05 6.64628e-07 -1.02758e-21 5.55804e-05 2.12957e-22 5.32733e-05)
(1.84808e-05 8.35048e-08 -5.01821e-24 1.88622e-05 -1.28478e-22 1.85706e-05)
(3.03593e-06 2.27625e-09 1.66505e-23 3.04583e-06 9.23952e-25 3.03787e-06)
(7.72763e-06 1.60537e-08 -9.1531e-23 7.78742e-06 7.82988e-24 7.73648e-06)
(0.000851217 0.000192923 -8.6889e-19 0.00142945 1.9107e-19 0.00091086)
(0.00451849 0.00133223 -8.03211e-20 0.00782261 -1.21561e-19 0.00474156)
(0.0372393 0.0119654 -6.5602e-21 0.0620993 -3.43236e-19 0.0383238)
(0.128092 0.045899 -4.97556e-20 0.204225 -6.76092e-22 0.130585)
(0.256256 0.102681 2.70883e-18 0.386154 2.25561e-18 0.261144)
(0.390997 0.17064 1.84634e-19 0.554229 -1.00786e-18 0.401641)
(0.512552 0.2352 4.71324e-18 0.689728 -1.75256e-17 0.533272)
(0.614426 0.289336 2.45535e-15 0.799432 1.76521e-16 0.648435)
(0.701295 0.334889 2.30239e-15 0.897991 1.24229e-16 0.750521)
(0.778821 0.375322 -2.13821e-15 0.995065 -2.52173e-16 0.844993)
(0.856922 0.415506 2.07381e-15 1.09894 2.72106e-16 0.940204)
(0.934336 0.456125 -3.67709e-15 1.21466 -5.42778e-16 1.04032)
(1.13396 0.552248 -3.42274e-15 1.45541 -7.47055e-16 1.25442)
(1.57419 0.775669 -3.41863e-15 1.97925 -1.0367e-16 1.79202)
(0.00151784 -0.000120502 -6.0395e-22 0.00125059 -2.17619e-21 0.00139946)
(0.00147802 -0.000143656 -1.29861e-20 0.00126633 -3.06226e-20 0.00139063)
(0.00140943 -0.000159864 9.56717e-21 0.00127072 2.28695e-20 0.0013616)
(0.0013199 -0.000165123 1.32219e-20 0.00126219 2.50319e-20 0.00131711)
(0.00122892 -0.000160345 2.39572e-20 0.00125142 3.46047e-20 0.00126979)
(0.0011352 -0.000144947 -7.36849e-20 0.00123354 -1.28967e-19 0.00121757)
(0.00104698 -0.000120401 5.1749e-20 0.00120871 1.03871e-19 0.00116503)
(0.000973121 -9.03613e-05 6.91135e-20 0.00118112 6.16688e-20 0.00111757)
(0.00091512 -5.71727e-05 -3.97469e-21 0.00115183 8.36946e-21 0.00107679)
(0.000875397 -2.41351e-05 4.22179e-20 0.00112359 7.52648e-20 0.00104541)
(0.000850745 6.58739e-06 -9.18614e-20 0.00109582 -4.34632e-21 0.001021)
(0.000842033 3.3538e-05 1.25566e-19 0.00107453 1.39329e-19 0.00100686)
(0.000846802 5.60649e-05 5.94657e-20 0.00106208 2.44195e-20 0.00100263)
(0.000864137 7.53467e-05 3.01078e-20 0.00106202 -2.87559e-20 0.00101029)
(0.000878647 8.93699e-05 8.63843e-20 0.00105661 8.53556e-20 0.00101204)
(0.000862945 9.29431e-05 -2.03672e-19 0.00101265 -2.0772e-19 0.000975889)
(0.000754055 7.39395e-05 3.77993e-20 0.000854009 5.52804e-20 0.000829309)
(0.000725481 7.14298e-05 2.97133e-19 0.00080942 8.71657e-20 0.000787794)
(8.85248e-05 1.05184e-06 1.33175e-21 8.96345e-05 9.80691e-22 8.9326e-05)
(0.00343283 0.00148662 -6.07601e-19 0.00489553 -4.22346e-20 0.0044444)
(9.13776e-10 1.4647e-16 7.64991e-32 9.13777e-10 -1.68841e-31 9.13777e-10)
(0.000859195 0.000214286 2.98364e-20 0.00106188 2.5724e-19 0.000981767)
(2.09201e-05 6.93223e-07 1.28457e-20 2.21743e-05 -2.6413e-21 2.14858e-05)
(0.0124649 -0.00485966 -5.90174e-18 0.0101076 -2.46253e-18 0.0109068)
(0.134853 -0.0539539 2.41124e-19 0.112274 6.09877e-19 0.120816)
(0.467287 -0.193358 -5.73061e-17 0.407057 1.63821e-17 0.430916)
(1.15747 -0.494101 2.01888e-17 1.05642 8.34073e-18 1.09785)
(2.53989 -1.11257 -2.55616e-17 2.41956 -2.11601e-18 2.46888)
(4.91535 -2.20041 -6.35693e-16 4.87165 6.49352e-16 4.88327)
(7.95887 -3.63348 -1.08454e-15 8.20219 3.35311e-17 8.07571)
(10.5705 -4.91605 3.90478e-15 11.3403 -1.15017e-15 10.9632)
(11.6796 -5.52488 3.18509e-15 13.049 1.73694e-15 12.386)
(11.1876 -5.36733 -1.54636e-16 12.983 4.29996e-15 12.1089)
(9.8749 -4.78701 6.63665e-15 11.8326 -5.04356e-15 10.8664)
(8.45553 -4.12807 5.1595e-15 10.3837 -2.92442e-15 9.42181)
(7.19226 -3.52361 -9.5788e-15 8.9522 -3.55024e-15 8.06776)
(6.21473 -3.05341 -2.70149e-17 7.811 -1.68906e-15 7.01424)
(5.27479 -2.55641 6.26779e-15 6.35389 -1.58443e-15 5.79022)
(5.68032 -2.81456 -1.30983e-14 7.35018 4.2241e-15 6.54225)
(0.0015522 -9.11042e-05 -2.8395e-21 0.00123878 -6.86489e-21 0.00140939)
(0.00156568 -5.92716e-05 -2.35637e-21 0.0012237 -2.58363e-21 0.00140584)
(0.0015711 -2.04299e-05 2.12362e-20 0.00121257 3.71832e-20 0.00140042)
(0.00154388 2.08074e-05 -1.27912e-20 0.00119225 -6.25961e-22 0.00137348)
(0.00148458 6.12864e-05 3.0441e-21 0.00116497 1.59627e-20 0.00132791)
(0.00138226 9.45469e-05 -4.97008e-21 0.0011207 5.04193e-20 0.00125261)
(0.0012428 0.000115289 -1.14466e-20 0.00105709 4.76729e-20 0.00114977)
(0.00108704 0.000121546 1.33478e-19 0.000979562 9.6339e-20 0.00103372)
(0.000943521 0.000117563 1.99262e-20 0.00090637 -2.61721e-20 0.000925779)
(0.000803106 0.000104287 7.13323e-20 0.000824285 9.32057e-21 0.000814298)
(0.000664137 8.44539e-05 -5.56137e-20 0.000723571 -3.73377e-20 0.000694614)
(0.00053886 6.38433e-05 -4.01953e-20 0.000616409 6.16983e-20 0.000579072)
(0.000432621 4.5775e-05 4.3387e-20 0.000514431 -2.19604e-20 0.000475864)
(0.000344876 3.11657e-05 3.57188e-20 0.000422741 -1.30456e-22 0.000387131)
(0.000274804 2.00997e-05 -2.57989e-20 0.000344661 2.48842e-20 0.000313888)
(0.000219731 1.20343e-05 -1.86478e-20 0.000280096 4.50056e-20 0.000254777)
(0.000177754 6.39069e-06 4.53045e-20 0.000228859 -2.77678e-20 0.000208692)
(0.000146505 2.47149e-06 4.22689e-20 0.000189416 -7.71929e-21 0.000173738)
(0.000124168 -3.00187e-07 1.66307e-20 0.000160366 -1.47453e-21 0.000148286)
(0.000108451 -2.41422e-06 -5.6459e-21 0.000139158 2.0892e-20 0.000130017)
(9.79625e-05 -4.16497e-06 7.99044e-20 0.000124202 9.87757e-21 0.000117436)
(9.16473e-05 -5.84955e-06 3.20342e-21 0.000113942 -1.48577e-20 0.000109335)
(8.90451e-05 -7.67575e-06 -2.59686e-22 0.000107317 -9.69874e-22 0.000105007)
(8.91714e-05 -9.44683e-06 -1.81476e-21 0.000101838 -1.06095e-20 0.000102932)
(9.2341e-05 -1.05781e-05 -1.51615e-21 9.77672e-05 7.97459e-21 0.000103494)
(9.52338e-05 -1.00466e-05 1.29231e-19 9.33031e-05 -6.63867e-21 0.000103183)
(0.000104347 -9.47634e-06 3.47409e-22 9.5862e-05 -1.0007e-23 0.000110096)
(6.26068e-05 -2.75253e-06 -4.71058e-21 5.80043e-05 2.6418e-22 6.39406e-05)
(0.00047408 -6.55475e-05 -1.02594e-21 0.000295505 -1.57616e-22 0.000501951)
(0.00325926 -0.000272184 -2.52182e-18 0.0016856 -9.41052e-20 0.0034079)
(0.00933507 0.000424198 1.76041e-17 0.00467944 7.81681e-19 0.00965408)
(0.0187836 0.00468285 -2.3935e-19 0.0112651 -1.32705e-20 0.0193705)
(0.038604 0.0154366 -2.73071e-16 0.0316808 -1.27666e-17 0.0399562)
(0.0759825 0.0342763 -3.14164e-19 0.0747661 9.44077e-18 0.0792592)
(0.130187 0.0608433 -1.19263e-18 0.13971 8.15336e-18 0.137257)
(0.196717 0.0929625 3.53966e-17 0.218902 -1.03019e-16 0.208547)
(0.267606 0.127593 -1.72787e-16 0.305723 7.10709e-16 0.286724)
(0.333496 0.15408 2.18624e-15 0.353615 8.14179e-16 0.342306)
(0.548269 0.261171 4.48567e-15 0.615212 1.75778e-15 0.593709)
(0.00128851 -9.76975e-05 -2.52605e-21 0.00106031 -4.72089e-21 0.00116908)
(0.00127314 -0.000115777 -5.50345e-21 0.00108091 -8.81845e-21 0.00117113)
(0.00124326 -0.000131401 1.05162e-20 0.00110008 1.5999e-20 0.00116414)
(0.00120671 -0.000141543 1.4804e-20 0.00111814 1.43984e-20 0.00115342)
(0.00115892 -0.000144743 1.67334e-21 0.00112689 -7.26537e-22 0.00113219)
(0.00110138 -0.000141115 -5.6794e-21 0.00112596 1.39637e-20 0.00110097)
(0.00103935 -0.000131397 1.07887e-19 0.00111479 1.08098e-19 0.00106236)
(0.000972772 -0.000116712 -1.01061e-19 0.00108965 -1.34194e-19 0.00101448)
(0.000904793 -9.88104e-05 2.82689e-20 0.00105272 7.30829e-21 0.000959837)
(0.00083692 -7.97129e-05 1.33609e-19 0.00100427 9.89765e-20 0.000899697)
(0.000769938 -6.08834e-05 1.05099e-19 0.000946101 1.06741e-19 0.000835244)
(0.000703904 -4.35106e-05 1.14001e-19 0.000879742 3.2758e-20 0.000767497)
(0.000638513 -2.83864e-05 -1.27126e-19 0.000806699 -9.63982e-20 0.00069722)
(0.00057392 -1.58322e-05 -7.97192e-20 0.00072926 -7.99721e-20 0.000625775)
(0.000509999 -5.80928e-06 8.77609e-21 0.00064893 -2.6809e-20 0.000553717)
(0.000443331 2.89677e-06 -1.9503e-19 0.000562872 1.37297e-20 0.000478584)
(0.000377812 1.0215e-05 -5.28172e-20 0.000475003 -6.69349e-20 0.000404458)
(0.000324816 1.61588e-05 -2.90631e-19 0.000400912 -2.26028e-19 0.000344243)
(0.000246351 1.48768e-05 2.0291e-20 0.000286903 -2.73063e-20 0.000256411)
(0.000149241 6.6237e-06 3.05183e-21 0.000160778 -6.9618e-21 0.000152296)
(1.97276e-05 1.10079e-07 -3.98094e-22 1.98629e-05 -4.71775e-24 1.97697e-05)
(9.50292e-05 2.26256e-06 1.01972e-21 9.71727e-05 2.25506e-22 9.58042e-05)
(7.56336e-06 1.27928e-08 -2.43209e-23 7.57258e-06 -4.95124e-24 7.56694e-06)
(0.00259941 0.0010717 -6.41989e-19 0.00311594 6.89313e-19 0.00278941)
(0.0139126 0.00646949 1.07547e-18 0.0153882 7.28771e-20 0.0142382)
(0.000207169 1.46603e-05 1.1878e-20 0.00020668 6.33533e-21 0.000205915)
(0.00283684 0.00113455 -1.22882e-19 0.00246108 5.08033e-20 0.00255612)
(0.00491584 0.00143235 6.33019e-19 0.00299939 4.01755e-20 0.0037029)
(0.0323586 -0.0115535 4.06094e-17 0.0234047 2.47187e-18 0.027034)
(0.255035 -0.109799 -1.00397e-17 0.2361 1.22721e-16 0.243684)
(1.06251 -0.478272 -5.32781e-16 1.06539 -5.257e-16 1.06066)
(2.81403 -1.29851 1.98881e-15 2.97028 -1.86541e-15 2.88811)
(5.15403 -2.42355 2.17737e-15 5.68183 -2.12309e-16 5.41663)
(7.00309 -3.34369 -3.85031e-16 8.02778 -7.24083e-15 7.52057)
(7.70633 -3.72221 -5.82331e-15 9.1312 -1.76343e-15 8.4277)
(7.50729 -3.6502 6.99745e-16 9.09036 3.6639e-15 8.30262)
(7.00448 -3.42051 -9.9653e-15 8.60225 1.47821e-15 7.81039)
(6.25811 -3.01934 -6.98786e-15 7.41626 8.73351e-16 6.82166)
(6.54294 -3.21241 8.11004e-15 8.14394 -4.94794e-15 7.38594)
(0.00128954 -7.51057e-05 -1.36628e-21 0.00103296 -1.40087e-21 0.00115766)
(0.00127903 -5.12168e-05 4.87511e-21 0.00100504 2.23242e-20 0.00113892)
(0.00125241 -2.16721e-05 1.44766e-20 0.000970772 3.21498e-20 0.00111006)
(0.00121286 9.52573e-06 1.56064e-20 0.000937747 -7.62412e-21 0.00107456)
(0.0011558 3.99811e-05 -3.10066e-20 0.000903921 -2.66243e-20 0.00102992)
(0.00107627 6.6081e-05 -3.42221e-21 0.000865084 -3.8091e-20 0.000970837)
(0.000980821 8.44565e-05 -4.75866e-20 0.000822615 -4.88483e-20 0.000901572)
(0.000879002 9.33551e-05 -7.51295e-20 0.000777355 -2.77172e-21 0.000828196)
(0.000775194 9.35048e-05 -2.16017e-20 0.000727843 -1.19314e-20 0.000751975)
(0.000668447 8.57799e-05 2.33823e-20 0.000668378 -1.63685e-20 0.000669062)
(0.000565377 7.27341e-05 2.31438e-20 0.000599849 5.3102e-20 0.000583176)
(0.00047446 5.81123e-05 4.35557e-20 0.000530018 -1.68953e-20 0.000502531)
(0.000398355 4.43961e-05 -3.7205e-20 0.000464231 -4.26646e-20 0.00043115)
(0.00033584 3.26781e-05 -7.0252e-21 0.000404537 1.58613e-20 0.000369554)
(0.000285193 2.33522e-05 3.38818e-20 0.000351991 -7.38594e-21 0.000317447)
(0.000244166 1.62558e-05 7.43412e-20 0.000306526 -5.30645e-21 0.000273745)
(0.000211305 1.1071e-05 -4.66376e-20 0.000268254 -1.33538e-20 0.000237765)
(0.00018506 7.34809e-06 -1.41562e-20 0.000236568 -2.06586e-20 0.000208459)
(0.000164284 4.64474e-06 -6.60145e-21 0.000210852 3.65913e-21 0.000184936)
(0.000147525 2.56366e-06 6.89401e-20 0.000189739 -2.72385e-20 0.00016581)
(0.000134023 8.48409e-07 1.24421e-20 0.000172462 -1.82247e-20 0.000150274)
(0.000122794 -7.19003e-07 -6.70332e-20 0.000157828 1.9677e-20 0.000137235)
(0.00011289 -2.26747e-06 -2.80268e-21 0.000144556 9.89304e-21 0.000125549)
(0.00010263 -3.70514e-06 -1.0774e-21 0.000130415 -6.61065e-21 0.000113287)
(9.22026e-05 -4.60639e-06 1.00378e-21 0.000115835 -8.22134e-23 0.000100628)
(8.3629e-05 -4.88956e-06 -5.1249e-20 0.000103765 -1.05232e-20 8.99641e-05)
(7.72222e-05 -4.83539e-06 -9.05472e-22 9.46598e-05 1.61017e-22 8.18249e-05)
(7.26563e-05 -4.67173e-06 1.10612e-20 8.8158e-05 2.93375e-22 7.5898e-05)
(6.69047e-05 -4.28746e-06 -3.91779e-22 8.02395e-05 -9.40231e-24 6.89625e-05)
(5.91234e-05 -3.80627e-06 2.52696e-22 7.01606e-05 3.58264e-22 6.02533e-05)
(4.48929e-05 -2.80238e-06 -2.78283e-20 5.21832e-05 -1.00137e-21 4.52677e-05)
(2.86461e-05 -1.68928e-06 -6.41935e-22 3.241e-05 -3.98863e-23 2.85886e-05)
(0.000200293 -5.49703e-05 3.68067e-21 0.000303565 -6.73039e-20 0.000184274)
(0.000395555 -4.56006e-05 1.70651e-17 0.000505562 1.53879e-18 0.000287284)
(0.00167565 0.000601264 1.09858e-18 0.00130193 1.22843e-19 0.00133827)
(0.00859373 0.00334346 -1.88106e-16 0.00675985 -3.56021e-17 0.00776705)
(0.0268558 0.0112082 1.25031e-15 0.0232281 1.83559e-16 0.0257618)
(0.0706024 0.0278845 4.8096e-17 0.0566823 -1.76384e-16 0.0643783)
(0.229828 0.104447 2.72989e-16 0.2307 -1.51759e-15 0.237432)
(0.000964183 -7.4394e-05 -3.03409e-21 0.000794143 -4.50956e-21 0.000880879)
(0.000948036 -8.78632e-05 -5.53835e-21 0.000806674 -7.48146e-21 0.000879835)
(0.000922322 -9.9103e-05 1.88299e-20 0.000818487 2.41251e-20 0.000873155)
(0.000888685 -0.000105918 -8.03294e-20 0.000827164 -1.09893e-19 0.000861433)
(0.000847358 -0.000107502 1.99371e-20 0.000830126 3.12754e-20 0.000843038)
(0.000799172 -0.000103634 4.3485e-20 0.000826518 4.52088e-20 0.000817872)
(0.000747513 -9.45867e-05 -3.71141e-20 0.000815504 -6.08389e-20 0.000787525)
(0.00069433 -8.11871e-05 -2.50182e-20 0.000796209 4.32514e-21 0.000752343)
(0.000641643 -6.4565e-05 -1.49547e-19 0.000769004 -1.41452e-19 0.000713451)
(0.000592379 -4.63118e-05 -2.09354e-20 0.000735703 -5.65166e-20 0.000673371)
(0.000547813 -2.77255e-05 4.11452e-21 0.000697763 -1.32764e-20 0.00063332)
(0.000509147 -1.00035e-05 -7.5036e-20 0.000657262 -9.53125e-20 0.000594941)
(0.00047737 5.891e-06 3.60047e-20 0.000616747 4.31908e-20 0.000559946)
(0.000452672 1.9387e-05 -1.47927e-19 0.000578282 -7.68944e-20 0.000529345)
(0.000434924 3.04251e-05 3.23065e-20 0.000543488 1.79953e-20 0.000503897)
(0.000422148 3.85894e-05 1.41562e-19 0.000512464 1.18437e-19 0.000482252)
(0.000408292 4.36287e-05 -1.94642e-19 0.000480578 -5.53597e-20 0.000458789)
(0.000388771 4.56725e-05 -3.57227e-20 0.000443277 1.60575e-19 0.000429185)
(0.000368647 4.6629e-05 -1.23439e-20 0.000407839 -2.09264e-20 0.000400136)
(0.000332794 4.26309e-05 -1.42349e-19 0.000356588 -2.30488e-20 0.000354245)
(0.000271791 3.1188e-05 1.14678e-19 0.000282494 7.03582e-20 0.000282996)
(0.000133671 7.79493e-06 9.30667e-22 0.000135323 -1.34482e-21 0.000135609)
(1.6071e-05 1.04213e-07 2.66218e-22 1.60842e-05 7.41827e-23 1.6088e-05)
(3.27447e-06 3.8113e-09 6.28337e-24 3.27453e-06 2.09629e-24 3.27477e-06)
(0 0 -0 0 -0 0)
(1.03918e-05 3.39817e-08 5.25138e-25 1.03838e-05 -1.90259e-24 1.0389e-05)
(0.00060776 0.000100688 1.5951e-20 0.000577536 -4.41429e-21 0.000594718)
(0.00384614 0.00153714 -1.14668e-19 0.00333305 -1.73234e-19 0.00360472)
(0.0194407 0.00793946 -8.49698e-18 0.0164597 -4.23089e-19 0.0179698)
(0.0101845 0.00405832 4.74603e-19 0.0083451 2.70078e-20 0.00925225)
(0.0226211 0.00854583 -2.61827e-18 0.0172443 1.00569e-18 0.0198643)
(0.0459372 0.0120187 -2.2268e-16 0.0250589 -1.57691e-16 0.0351572)
(0.24086 -0.0982644 -8.16103e-17 0.204248 -2.52468e-16 0.22131)
(1.27324 -0.583866 -5.45124e-15 1.32644 5.37045e-16 1.29685)
(3.15305 -1.48962 7.64545e-16 3.51911 2.51004e-15 3.33335)
(5.0042 -2.3989 -8.62462e-19 5.80623 1.32872e-19 5.40414)
(6.12659 -2.96365 -3.40241e-16 7.29454 4.5443e-15 6.71651)
(6.43231 -3.08564 1.42261e-16 7.49388 1.90156e-16 6.94715)
(6.97138 -3.40197 -1.32565e-14 8.48041 2.7472e-15 7.78212)
(0.000973465 -5.79982e-05 5.35418e-21 0.000780252 3.43698e-21 0.000878655)
(0.000975237 -4.04186e-05 -1.5077e-20 0.00076659 -2.4301e-20 0.000871922)
(0.000967263 -1.88374e-05 -8.33428e-21 0.000749905 1.41448e-20 0.000859505)
(0.000946606 4.46422e-06 4.02333e-20 0.000731287 2.95434e-20 0.000839415)
(0.000911513 2.77231e-05 -1.50156e-20 0.000710672 -7.74416e-20 0.00081142)
(0.00085816 4.83614e-05 -2.6869e-20 0.000685183 1.82332e-20 0.000771676)
(0.000791988 6.39222e-05 6.78001e-20 0.000656883 5.27797e-20 0.00072425)
(0.000720101 7.2908e-05 -2.25389e-20 0.00062712 -6.15892e-20 0.000673543)
(0.000644749 7.53646e-05 -5.42711e-20 0.000594063 -2.45323e-20 0.000619509)
(0.000566066 7.16191e-05 -4.03762e-20 0.000553813 1.57775e-20 0.000560132)
(0.000489211 6.33212e-05 4.46293e-20 0.000507017 1.6953e-21 0.000498287)
(0.000418537 5.28387e-05 -2.5526e-20 0.000456693 -2.60711e-20 0.000437774)
(0.000355884 4.20686e-05 -3.26581e-20 0.000405684 2.60632e-20 0.000380972)
(0.000301272 3.21408e-05 3.16219e-20 0.000355941 1.36041e-20 0.000328872)
(0.00025441 2.36691e-05 -4.63643e-20 0.000309161 7.73576e-21 0.000282169)
(0.000214676 1.68085e-05 -1.2443e-20 0.000266559 -3.42166e-20 0.000241161)
(0.00018147 1.14774e-05 1.38252e-20 0.000228954 1.76997e-20 0.000205931)
(0.000154125 7.42264e-06 -5.0671e-20 0.000196707 2.37596e-21 0.000176316)
(0.000131986 4.3474e-06 2.01275e-20 0.000169794 -3.61315e-22 0.000151958)
(0.000114178 1.9489e-06 -7.67169e-20 0.000147598 5.24411e-21 0.000132113)
(9.99999e-05 -8.72826e-09 -1.0571e-20 0.000129479 2.88289e-21 0.000116093)
(8.86493e-05 -1.71743e-06 6.15039e-20 0.000114493 5.68584e-21 0.000103034)
(7.93352e-05 -3.28687e-06 5.89618e-20 0.000101567 -1.34947e-20 9.20009e-05)
(7.07568e-05 -4.65786e-06 -4.91575e-20 8.89128e-05 3.644e-21 8.14992e-05)
(6.22256e-05 -5.53081e-06 -6.85963e-22 7.58556e-05 4.09793e-22 7.08384e-05)
(5.44202e-05 -5.80778e-06 -4.7099e-20 6.37347e-05 1.43647e-20 6.09833e-05)
(4.83914e-05 -5.71929e-06 -9.29611e-22 5.38814e-05 1.00817e-23 5.32193e-05)
(4.4556e-05 -5.39401e-06 -7.49899e-24 4.66695e-05 -3.92451e-22 4.79331e-05)
(4.35218e-05 -5.06206e-06 -5.47173e-23 4.27175e-05 1.10642e-23 4.57564e-05)
(4.12516e-05 -4.09783e-06 1.61607e-20 3.83525e-05 1.33789e-22 4.23695e-05)
(5.17167e-05 -5.49391e-06 7.67691e-23 4.50161e-05 -1.71894e-22 5.23158e-05)
(1.19021e-05 -3.20294e-07 2.34987e-24 1.13885e-05 -8.31266e-26 1.1884e-05)
(8.48515e-05 -1.23746e-05 -4.40442e-19 6.20693e-05 -3.30199e-20 8.20606e-05)
(0.000439376 -0.000103836 -3.8477e-18 0.000233717 -3.2861e-19 0.000396954)
(0.00111172 -0.000257608 9.4047e-20 0.000562454 9.46685e-21 0.000951881)
(0.00229339 -0.000460256 -4.25574e-17 0.00107065 -6.766e-19 0.00181914)
(0.0008871 -9.17865e-05 1.97612e-18 0.000353823 -1.47307e-17 0.000651585)
(0.00285395 0.000198818 1.36946e-18 0.00112066 2.70361e-19 0.00195689)
(0.0489196 0.0196739 -5.07492e-16 0.0398874 7.0497e-17 0.0464597)
(0.000790888 -6.10368e-05 5.97279e-21 0.00065171 7.00561e-21 0.000720667)
(0.000783252 -7.19174e-05 -4.50733e-21 0.000665456 -5.06951e-21 0.000723781)
(0.00076884 -8.14803e-05 1.87575e-23 0.00067951 -3.74849e-22 0.000723263)
(0.000750131 -8.80967e-05 -2.57256e-21 0.000693159 2.41126e-21 0.000720569)
(0.000725967 -9.09725e-05 5.75904e-20 0.000703296 6.08102e-20 0.000713341)
(0.000696862 -8.99692e-05 -3.6437e-20 0.000709705 -4.68124e-20 0.000701591)
(0.000664843 -8.51191e-05 -2.75312e-21 0.00071121 1.20657e-20 0.000685969)
(0.000630415 -7.68323e-05 1.24535e-19 0.000706162 1.19909e-19 0.000665792)
(0.000594641 -6.58152e-05 -2.93974e-20 0.00069436 2.1271e-21 0.000641437)
(0.000558767 -5.31294e-05 -1.40995e-19 0.000675781 -9.42811e-20 0.00061362)
(0.000523166 -3.97212e-05 4.37621e-20 0.000650568 3.66957e-20 0.000582541)
(0.000488365 -2.64975e-05 -1.16544e-19 0.000619627 -3.68757e-20 0.00054893)
(0.000454736 -1.42771e-05 -4.2815e-20 0.000584126 -1.59773e-20 0.000513598)
(0.000422333 -3.5565e-06 -7.32522e-20 0.000545256 4.10265e-20 0.000477153)
(0.000391159 5.36858e-06 6.36151e-21 0.000504249 3.52736e-21 0.000440269)
(0.000359898 1.22824e-05 5.33499e-20 0.00046063 1.19799e-20 0.000402106)
(0.000326198 1.76109e-05 7.36172e-20 0.000412285 1.08546e-19 0.000360931)
(0.000291845 2.13281e-05 2.75059e-19 0.000362106 7.60604e-20 0.000319023)
(0.000260055 2.37085e-05 -1.09804e-19 0.000314809 -5.26986e-21 0.000280228)
(0.000231686 2.47925e-05 1.00354e-19 0.000271872 4.42387e-20 0.000245631)
(0.000212793 2.60761e-05 1.55175e-20 0.00024119 -4.52725e-20 0.000221849)
(0.000186688 2.3359e-05 -1.46259e-20 0.000201758 2.66141e-20 0.000190751)
(0.000156794 1.75577e-05 -6.53397e-20 0.000160983 -3.7356e-20 0.000157137)
(4.2235e-05 1.28731e-06 1.64879e-22 4.2061e-05 -1.95069e-22 4.20741e-05)
(7.30903e-06 3.71279e-08 9.25656e-24 7.2924e-06 -1.91366e-24 7.29944e-06)
(3.30458e-06 7.38988e-09 1.01323e-23 3.29966e-06 -3.14679e-24 3.3019e-06)
(7.47619e-07 3.73684e-10 -1.77986e-25 7.47336e-07 -6.36089e-26 7.47467e-07)
(0 0 -0 0 -0 0)
(0 0 0 0 0 0)
(0.00147908 0.000499359 -1.44875e-19 0.00115708 -5.86757e-19 0.00131362)