/*--------------------------------*- C++ -*----------------------------------*\
| =========                 |                                                 |
| \\      /  F ield         | OpenFOAM: The Open Source CFD Toolbox           |
|  \\    /   O peration     | Version:  2312                                  |
|   \\  /    A nd           | Website:  www.openfoam.com                      |
|    \\/     M anipulation  |                                                 |
\*---------------------------------------------------------------------------*/
FoamFile
{
    version     2.0;
    format      ascii;
    arch        "LSB;label=32;scalar=64";
    class       volSymmTensorField;
    location    "450";
    object      turbulenceProperties:devReff;
}
// * * * * * * * * * * * * * * * * * * * * * * * * * * * * * * * * * * * * * //

dimensions      [0 2 -2 0 0 0 0];

internalField   nonuniform List<symmTensor> 
10720
(
(0.00163714 0.00425779 -1.66575e-21 -0.00177373 -6.22759e-20 0.000136593)
(0.00238852 0.00488002 1.07214e-21 -0.00248646 6.81595e-20 9.79402e-05)
(0.00361105 0.00546062 1.60023e-20 -0.00380827 6.76661e-20 0.000197225)
(0.00524591 0.00621487 7.50523e-20 -0.00549189 6.12538e-19 0.00024598)
(0.00742491 0.00687339 -3.04662e-19 -0.00769355 -1.22058e-18 0.000268643)
(0.0104039 0.00726186 -3.61563e-19 -0.0107954 -7.36976e-19 0.000391441)
(0.014299 0.00737457 1.27665e-19 -0.0147852 1.23368e-20 0.000486256)
(0.0191876 0.00685904 6.94154e-20 -0.0197702 1.09758e-19 0.000582585)
(0.025239 0.00535156 1.80812e-19 -0.0259856 -1.46053e-19 0.000746563)
(0.0325644 0.00260623 -2.77721e-20 -0.0334649 -2.78635e-20 0.000900454)
(0.0413421 -0.00189799 3.18764e-18 -0.0424336 1.28515e-18 0.00109149)
(0.0519595 -0.00873399 -7.59287e-19 -0.0532774 -5.83157e-19 0.00131782)
(0.0649576 -0.0188219 1.53573e-18 -0.0665508 -2.30574e-18 0.00159318)
(0.0812468 -0.0337492 7.49123e-19 -0.0832016 1.60734e-18 0.00195482)
(0.102368 -0.0561689 1.17575e-18 -0.104834 -2.0845e-18 0.00246625)
(0.13053 -0.0904043 4.81385e-19 -0.133704 7.33966e-18 0.00317454)
(0.169882 -0.14506 3.69803e-17 -0.174188 1.96897e-17 0.00430664)
(0.224283 -0.232429 -1.03626e-17 -0.230164 1.39408e-17 0.00588053)
(0.310929 -0.388884 -4.15167e-18 -0.319544 -6.73841e-17 0.00861508)
(0.426448 -0.641754 2.22491e-18 -0.438623 -4.33786e-19 0.0121747)
(0.666826 -1.21423 -6.59689e-17 -0.686221 -8.97232e-17 0.0193955)
(0.945596 -2.11457 1.57436e-16 -0.971713 4.7722e-16 0.0261172)
(1.76571 -5.129 -2.5735e-16 -1.81784 -9.31582e-16 0.0521288)
(2.42859 -10.3115 4.53066e-16 -2.51193 1.24279e-16 0.0833358)
(1.52836 -11.6476 -2.48607e-16 -1.56943 -1.19287e-17 0.0410688)
(0.526442 -11.2301 2.0988e-17 -0.515069 -1.2805e-15 -0.0113724)
(-0.145789 -11.0469 2.70107e-16 0.175524 -6.42562e-17 -0.0297354)
(-0.66492 -11.2302 1.9554e-16 0.689626 4.12478e-16 -0.0247056)
(-1.13633 -11.4441 1.14993e-15 1.15267 5.60207e-16 -0.0163427)
(-1.57187 -11.4567 1.04828e-15 1.58013 4.5112e-15 -0.00826628)
(-1.95808 -11.242 -2.01214e-15 1.95631 -1.73981e-15 0.00176979)
(-2.27381 -10.8352 -2.17693e-15 2.2633 -3.02275e-15 0.010508)
(-2.49383 -10.2215 -9.24848e-16 2.47888 -3.97096e-15 0.0149503)
(-2.60534 -9.41462 -2.96479e-15 2.58997 -5.5816e-15 0.0153768)
(-2.58945 -8.40628 1.07418e-15 2.57524 2.92199e-15 0.0142059)
(-2.43549 -7.2275 1.8009e-16 2.42448 2.16273e-15 0.0110159)
(-2.07417 -5.67378 -4.60228e-17 2.06072 3.65208e-18 0.013442)
(-1.58667 -4.17185 -1.78691e-15 1.58495 -1.07477e-16 0.00171765)
(-0.47265 -0.926827 -3.59783e-16 0.473439 -1.68955e-15 -0.000789279)
(0.000968053 0.00371302 1.24942e-21 -0.00101994 -4.47052e-21 5.18853e-05)
(0.000549692 0.00319713 -6.73456e-21 -0.000639717 6.84013e-21 9.00252e-05)
(0.00017931 0.00261109 -3.69107e-20 -0.000226376 -2.56712e-20 4.70665e-05)
(-6.70763e-05 0.00208971 3.82721e-20 3.29484e-05 -5.46573e-20 3.41279e-05)
(-0.000179257 0.00159689 -4.70883e-20 0.00016097 -4.67828e-20 1.82874e-05)
(-0.000172604 0.0011672 -2.41176e-19 0.000173 2.92867e-19 -3.9617e-07)
(-8.40077e-05 0.000835302 8.15704e-20 0.000108116 2.73127e-19 -2.41082e-05)
(5.4784e-05 0.000636923 -4.33384e-20 -1.70857e-05 -3.89641e-19 -3.76983e-05)
(0.000231362 0.000621222 2.00691e-19 -0.000204968 4.90896e-21 -2.6394e-05)
(0.000471318 0.000742216 -1.48195e-19 -0.000468028 -4.26214e-20 -3.29047e-06)
(0.000812381 0.00102678 1.27497e-19 -0.000823024 3.07361e-19 1.06436e-05)
(0.00130644 0.0015664 2.60633e-19 -0.00132442 -1.22026e-19 1.79829e-05)
(0.00202429 0.00252565 -2.5943e-19 -0.00205446 -7.47305e-20 3.01702e-05)
(0.00305565 0.00413713 1.60704e-20 -0.00310696 1.13857e-19 5.13005e-05)
(0.0044731 0.00664462 9.41269e-19 -0.00454804 2.00119e-19 7.49416e-05)
(0.00629923 0.0103377 9.02051e-19 -0.00640794 -1.90444e-19 0.000108705)
(0.00863914 0.015635 4.08408e-19 -0.0087849 6.36821e-19 0.000145755)
(0.0117402 0.0234246 2.96092e-19 -0.0119383 6.29255e-19 0.000198175)
(0.0161482 0.0354501 3.13215e-19 -0.0164166 -1.76925e-19 0.000268373)
(0.0226884 0.0549989 5.91162e-19 -0.023079 2.58796e-20 0.000390543)
(0.0329407 0.088617 -8.89062e-19 -0.0335317 -5.39254e-18 0.000590927)
(0.0490728 0.148528 -3.1297e-18 -0.0500522 -1.03048e-19 0.000979408)
(0.0757042 0.263753 2.9679e-18 -0.077482 5.23869e-18 0.00177782)
(0.116282 0.48777 2.14029e-18 -0.119918 -5.65607e-19 0.00363663)
(0.183243 0.979452 7.47146e-17 -0.191089 -1.51613e-17 0.00784628)
(0.277943 2.01763 -1.11728e-18 -0.294318 -1.16253e-17 0.0163751)
(0.410054 4.53273 1.98064e-19 -0.448529 7.30004e-18 0.0384751)
(0.421168 9.36905 2.27245e-18 -0.501476 -6.98145e-20 0.080308)
(0.00812326 13.292 3.31567e-19 -0.112266 4.49028e-21 0.104143)
(-0.62875 14.9598 3.64894e-16 0.530418 5.08768e-18 0.0983315)
(-1.26785 15.3986 -4.20107e-18 1.18561 -2.17085e-19 0.0822438)
(-1.85323 15.4185 -2.64554e-17 1.78589 3.60812e-17 0.0673381)
(-2.3774 15.2563 -2.2431e-15 2.3216 -1.86772e-16 0.0557948)
(-2.83317 14.9562 -4.02514e-15 2.78627 -2.58961e-16 0.0469018)
(-3.21856 14.534 3.58627e-15 3.17823 3.91332e-16 0.0403269)
(-3.53766 14.011 -2.69053e-17 3.50239 1.37038e-16 0.0352631)
(-3.77533 13.2878 1.3608e-18 3.74324 -5.27361e-16 0.0320885)
(-3.91954 12.4706 -1.93956e-16 3.88955 2.82955e-16 0.0299972)
(-3.64018 10.0664 -3.51066e-15 3.63357 1.25585e-16 0.00660965)
(0.000579433 -0.000460527 -4.14396e-21 -0.00052005 -1.26832e-20 -5.93828e-05)
(0.000492605 -0.000547355 7.5425e-21 -0.000425489 1.70775e-20 -6.71159e-05)
(0.000371416 -0.000622949 -3.36953e-22 -0.000291097 4.85219e-23 -8.03187e-05)
(0.000250519 -0.000652178 1.57193e-20 -0.000158591 2.33494e-21 -9.19289e-05)
(0.00013315 -0.000645109 1.07485e-20 -3.25568e-05 9.34031e-20 -0.000100593)
(2.31412e-05 -0.000610485 7.12145e-20 8.61799e-05 1.24529e-19 -0.000109321)
(-6.02899e-05 -0.000551403 -3.5651e-20 0.000177197 5.74091e-21 -0.000116908)
(-0.000116636 -0.000479008 -3.00488e-20 0.000238471 -7.88965e-21 -0.000121835)
(-0.000149303 -0.000404777 -1.69118e-19 0.000274582 -1.86821e-19 -0.000125279)
(-0.000158011 -0.000336002 -5.64478e-20 0.000285259 -1.85956e-20 -0.000127247)
(-0.000150112 -0.000278307 -4.89679e-19 0.000277009 -4.78317e-19 -0.000126896)
(-0.000132662 -0.000239949 -5.85707e-21 0.00025889 8.03423e-20 -0.000126227)
(-0.000110888 -0.000226119 -2.60704e-19 0.000240754 7.69617e-21 -0.000129866)
(-8.62534e-05 -0.000245788 1.93964e-19 0.000231114 1.15277e-19 -0.000144861)
(-4.85456e-05 -0.000344618 -5.27912e-19 0.000241475 -1.53934e-19 -0.00019293)
(6.24991e-05 -0.000658661 1.92848e-18 0.000258315 4.67411e-19 -0.000320814)
(0.000455279 -0.00154839 -3.34755e-18 0.000142117 -2.90945e-18 -0.000597396)
(0.00150241 -0.00354973 -5.74464e-18 -0.000499304 -2.32756e-18 -0.0010031)
(0.004208 -0.00868192 -1.19283e-17 -0.00253901 5.03106e-18 -0.00166899)
(0.0104872 -0.0211609 2.34326e-18 -0.00790271 -2.05109e-20 -0.00258453)
(0.0295184 -0.0626068 2.18913e-17 -0.0251033 3.22992e-17 -0.00441512)
(0.0740778 -0.174704 -4.16845e-17 -0.0678599 -1.26907e-16 -0.00621791)
(0.195469 -0.546227 -2.21796e-18 -0.187663 2.27939e-16 -0.00780561)
(0.504295 -1.78315 5.21929e-18 -0.501555 -8.74144e-17 -0.00274062)
(0.747825 -3.54133 -0 -0.771559 -0 0.0237338)
(0.789024 -5.38815 -2.558e-17 -0.843318 6.07344e-16 0.0542945)
(0.603398 -7.14464 -6.81774e-17 -0.675123 4.68843e-17 0.0717254)
(0.204352 -8.39153 -1.10648e-16 -0.279751 -4.75791e-16 0.0753992)
(-0.295627 -8.63477 -9.74187e-16 0.229737 -2.6282e-15 0.0658892)
(-0.707208 -7.8971 3.87828e-16 0.666078 -8.29584e-15 0.0411298)
(-0.931324 -6.69196 -1.09076e-16 0.922994 5.63911e-15 0.00832995)
(-0.998301 -5.478 -3.38884e-16 1.0165 7.39113e-15 -0.0182013)
(-0.984386 -4.49815 -2.1988e-15 1.0142 4.27042e-15 -0.0298108)
(-0.930803 -3.75337 6.4815e-15 0.960453 1.54328e-14 -0.02965)
(-0.863804 -3.18633 -4.13397e-16 0.887823 -2.76533e-15 -0.0240182)
(-0.781573 -2.74346 6.23884e-15 0.802064 -3.67484e-15 -0.0204908)
(-0.730878 -2.43229 -2.24029e-16 0.744254 4.92616e-17 -0.0133758)
(-0.560395 -2.1371 3.1747e-15 0.595687 7.05207e-16 -0.0352921)
(-0.787298 -2.2552 5.72244e-15 0.698337 6.56202e-15 0.0889609)
(0.000645655 -0.000345009 4.77935e-21 -0.000595427 1.5642e-20 -5.02282e-05)
(0.00068442 -0.000224612 -3.06717e-21 -0.00063747 -6.55519e-20 -4.69501e-05)
(0.000691694 -7.63939e-05 -4.11808e-20 -0.000654663 -1.37243e-19 -3.70303e-05)
(0.000654248 8.66813e-05 7.57667e-21 -0.000627664 1.94422e-19 -2.65842e-05)
(0.000565077 0.000235302 8.96749e-20 -0.000550956 -8.44999e-20 -1.41214e-05)
(0.000429275 0.000348908 -2.54477e-20 -0.000425618 -1.38469e-19 -3.65725e-06)
(0.000271226 0.00040598 1.3768e-19 -0.000274639 -2.98138e-19 3.41368e-06)
(0.000131121 0.000406958 -2.33457e-19 -0.000140194 -3.16309e-20 9.07274e-06)
(2.28717e-05 0.000374118 -1.28315e-19 -3.33812e-05 2.91659e-19 1.05095e-05)
(-6.63163e-05 0.000316361 -3.91109e-20 6.00913e-05 -1.49401e-20 6.22504e-06)
(-0.000121767 0.000243629 -6.44647e-20 0.000123188 -1.47644e-19 -1.42016e-06)
(-0.000141757 0.000176672 1.34058e-20 0.00015008 -7.86546e-20 -8.32289e-06)
(-0.000139971 0.000124397 5.41063e-20 0.000152778 1.38935e-19 -1.28069e-05)
(-0.00012757 8.66286e-05 -4.75612e-20 0.000142839 -3.23761e-20 -1.52692e-05)
(-0.000111044 6.08897e-05 -2.77625e-20 0.000127502 -9.94331e-20 -1.64583e-05)
(-9.41908e-05 4.40024e-05 -9.913e-20 0.000110951 -3.02665e-20 -1.67605e-05)
(-7.86826e-05 3.33876e-05 -1.76352e-20 9.51006e-05 -2.3089e-22 -1.6418e-05)
(-6.53908e-05 2.68724e-05 -1.13691e-21 8.10452e-05 -1.02365e-20 -1.56544e-05)
(-5.43343e-05 2.27332e-05 -1.13179e-20 6.89938e-05 8.15285e-21 -1.46595e-05)
(-4.52857e-05 1.99641e-05 1.97217e-20 5.8919e-05 -6.73685e-21 -1.36333e-05)
(-3.79975e-05 1.79326e-05 -1.19579e-19 5.07309e-05 8.84924e-20 -1.27334e-05)
(-3.26724e-05 1.64692e-05 -2.5463e-20 4.49201e-05 5.27698e-21 -1.22477e-05)
(-2.91895e-05 1.55186e-05 -9.32587e-22 4.16893e-05 -2.38765e-20 -1.24997e-05)
(-2.68697e-05 1.54958e-05 1.1335e-19 4.05156e-05 6.28991e-21 -1.36459e-05)
(-2.46032e-05 1.7263e-05 -9.84259e-20 3.96875e-05 8.41969e-21 -1.50844e-05)
(-0.000235313 0.000213508 -9.616e-19 0.000404619 2.11457e-19 -0.000169306)
(-0.00119751 0.0013569 -8.18086e-20 0.00216781 -1.23812e-19 -0.000970305)
(-0.00866898 0.0119941 -6.57599e-21 0.0162508 -3.44062e-19 -0.00758182)
(-0.026227 0.0459316 -4.97908e-20 0.0499596 -6.76571e-22 -0.0237326)
(-0.0449443 0.102717 2.70977e-18 0.0849992 2.25639e-18 -0.0400549)
(-0.0579723 0.170679 1.84677e-19 0.105298 -1.00809e-18 -0.0473253)
(-0.0659771 0.235243 4.71409e-18 0.111231 -1.75288e-17 -0.0452536)
(-0.0730168 0.289383 2.45575e-15 0.112019 1.76549e-16 -0.0390026)
(-0.0819867 0.33494 2.30275e-15 0.11474 1.24248e-16 -0.0327529)
(-0.0941524 0.375377 -2.13853e-15 0.122123 -2.5221e-16 -0.0279709)
(-0.108449 0.415565 2.0741e-15 0.133605 2.72145e-16 -0.0251555)
(-0.128786 0.456189 -3.6776e-15 0.151575 -5.42853e-16 -0.0227896)
(-0.147322 0.552321 -3.4232e-15 0.174171 -7.47155e-16 -0.0268486)
(-0.207653 0.775768 -3.41907e-15 0.197453 -1.03684e-16 0.0101999)
(0.000333682 -0.000312807 -1.56778e-21 -0.000360069 -5.64913e-21 2.63877e-05)
(0.00025836 -0.000372281 -3.36531e-20 -0.000290235 -7.93575e-20 3.18749e-05)
(0.000160851 -0.000413558 2.47496e-20 -0.000197977 5.91618e-20 3.71262e-05)
(5.20709e-05 -0.000426361 3.41401e-20 -9.69441e-05 6.46343e-20 4.48732e-05)
(-5.44252e-05 -0.000413077 6.17178e-20 3.54525e-06 8.91476e-20 5.08799e-05)
(-0.000154783 -0.000372457 -1.89342e-19 9.79075e-05 -3.31394e-19 5.68753e-05)
(-0.000238945 -0.000308489 1.3259e-19 0.000175434 2.66135e-19 6.3511e-05)
(-0.000299999 -0.000230744 1.76486e-19 0.000231132 1.57476e-19 6.8867e-05)
(-0.000337765 -0.000145421 -1.01098e-20 0.000264304 2.1288e-20 7.34607e-05)
(-0.000352964 -6.1109e-05 1.06894e-19 0.000275454 1.90567e-19 7.75098e-05)
(-0.000348657 1.65898e-05 -2.31345e-19 0.000268535 -1.09458e-20 8.01224e-05)
(-0.000331379 8.39143e-05 3.14174e-19 0.000250345 3.48611e-19 8.10344e-05)
(-0.000307325 0.00013929 1.47739e-19 0.000227513 6.06687e-20 7.98124e-05)
(-0.000281373 0.000184865 7.38703e-20 0.000204148 -7.05533e-20 7.72252e-05)
(-0.000254195 0.000218889 2.11576e-19 0.000181677 2.09057e-19 7.25176e-05)
(-0.000223273 0.000237027 -5.19414e-19 0.000158513 -5.29736e-19 6.476e-05)
(-0.000180505 0.000228525 1.16826e-19 0.000128421 1.70855e-19 5.20832e-05)
(-0.000158451 0.000232164 9.65753e-19 0.00011437 2.83309e-19 4.40806e-05)
(-9.83852e-05 0.000162466 2.05701e-19 7.3019e-05 1.51477e-19 2.53662e-05)
(-0.000909815 0.00163994 -6.70265e-19 0.000703734 -4.65904e-20 0.000206081)
(-6.81443e-05 0.000130564 6.81919e-20 5.54892e-05 -1.50506e-19 1.26552e-05)
(-0.000151436 0.000299303 4.16739e-20 0.000131669 3.59299e-19 1.97669e-05)
(-9.6499e-06 1.10275e-05 2.04346e-19 1.03016e-05 -4.20168e-20 -6.51699e-07)
(0.00132869 -0.00494732 -6.0082e-18 -0.00107113 -2.50695e-18 -0.000257563)
(0.0122462 -0.0541349 2.41933e-19 -0.0104083 6.11923e-19 -0.00183791)
(0.0322425 -0.193614 -5.7382e-17 -0.0280668 1.64038e-17 -0.00417573)
(0.0535947 -0.494416 2.02017e-17 -0.0475225 8.34605e-18 -0.00607227)
(0.0637985 -1.11293 -2.55698e-17 -0.0565678 -2.1167e-18 -0.00723071)
(0.0252632 -2.20079 -6.35804e-16 -0.0184472 6.49466e-16 -0.00681605)
(-0.120066 -3.63386 -1.08466e-15 0.12328 3.35347e-17 -0.0032144)
(-0.387494 -4.91642 3.90507e-15 0.382296 -1.15026e-15 0.00519793)
(-0.69199 -5.52521 3.18529e-15 0.677551 1.73704e-15 0.0144389)
(-0.905625 -5.36762 -1.54645e-16 0.889867 4.3002e-15 0.0157579)
(-0.983104 -4.78725 6.63699e-15 0.974695 -5.04381e-15 0.00840945)
(-0.964858 -4.12827 5.15976e-15 0.963382 -2.92457e-15 0.00147608)
(-0.878524 -3.52378 -9.57927e-15 0.881504 -3.55041e-15 -0.00298015)
(-0.798631 -3.05355 -2.70162e-17 0.797713 -1.68914e-15 0.000918347)
(-0.531533 -2.55653 6.2681e-15 0.547616 -1.58451e-15 -0.0160836)
(-0.843971 -2.81469 -1.30989e-14 0.825969 4.2243e-15 0.0180011)
(0.000395295 -0.000236803 -7.3806e-21 -0.000419381 -1.78436e-20 2.40861e-05)
(0.000435596 -0.000154352 -6.13633e-21 -0.000454967 -6.72814e-21 1.93711e-05)
(0.000460047 -5.32791e-05 5.53816e-20 -0.000474973 9.69699e-20 1.49256e-05)
(0.000454763 5.438e-05 -3.34297e-20 -0.000464206 -1.63594e-21 9.44308e-06)
(0.000415687 0.000160468 7.97048e-21 -0.000421151 4.17958e-20 5.46415e-06)
(0.000342124 0.00024805 -1.30393e-20 -0.000344105 1.32278e-19 1.98092e-06)
(0.000244197 0.00030301 -3.00846e-20 -0.00024389 1.25297e-19 -3.06875e-07)
(0.00014106 0.000319908 3.51311e-19 -0.000141807 2.53563e-19 7.46272e-07)
(4.81366e-05 0.000309273 5.24202e-20 -4.95976e-05 -6.88513e-20 1.46092e-06)
(-2.83437e-05 0.000273934 1.87372e-19 2.72883e-05 2.44828e-20 1.05543e-06)
(-7.85705e-05 0.000221402 -1.45795e-19 7.72412e-05 -9.78831e-20 1.32924e-06)
(-0.00010266 0.000166968 -1.05122e-19 0.000100154 1.61359e-19 2.50593e-06)
(-0.000108698 0.000119366 1.13139e-19 0.000104634 -5.72653e-20 4.06424e-06)
(-0.000104073 8.10064e-05 9.28409e-20 9.83161e-05 -3.39084e-22 5.75729e-06)
(-9.40452e-05 5.20542e-05 -6.68142e-20 8.68706e-05 6.44452e-20 7.17462e-06)
(-8.20395e-05 3.10428e-05 -4.81025e-20 7.36757e-05 1.16093e-19 8.36378e-06)
(-7.02286e-05 1.64114e-05 1.16343e-19 6.10086e-05 -7.13083e-20 9.22008e-06)
(-5.97403e-05 6.31472e-06 1.07998e-19 4.98981e-05 -1.97229e-20 9.84218e-06)
(-5.10626e-05 -7.62406e-07 4.22381e-20 4.08714e-05 -3.74497e-21 1.01913e-05)
(-4.39373e-05 -6.08774e-06 -1.42368e-20 3.34927e-05 5.26818e-20 1.04446e-05)
(-3.80777e-05 -1.0408e-05 1.99676e-19 2.74927e-05 2.46835e-20 1.0585e-05)
(-3.29294e-05 -1.44532e-05 7.91508e-21 2.21557e-05 -3.67106e-20 1.07737e-05)
(-2.77599e-05 -1.86722e-05 -6.31717e-22 1.66897e-05 -2.35934e-21 1.10702e-05)
(-2.10892e-05 -2.26159e-05 -4.34456e-21 9.23586e-06 -2.53992e-20 1.18533e-05)
(-1.29581e-05 -2.48038e-05 -3.55511e-21 -2.34565e-07 1.86991e-20 1.31927e-05)
(-4.80905e-06 -2.40848e-05 3.09805e-19 -9.43755e-06 -1.59149e-20 1.42466e-05)
(2.16951e-06 -2.25522e-05 8.26778e-22 -1.80224e-05 -2.3815e-23 1.58529e-05)
(5.47537e-06 -1.38325e-05 -2.36724e-20 -1.76537e-05 1.3276e-21 1.21783e-05)
(5.62368e-05 -7.33797e-05 -1.14853e-21 -0.000143676 -1.7645e-22 8.74387e-05)
(0.000481016 -0.000275628 -2.55372e-18 -0.00111255 -9.52958e-20 0.000631536)
(0.00145033 0.000425603 1.76624e-17 -0.00322073 7.84272e-19 0.0017704)
(0.00231358 0.00468906 -2.39667e-19 -0.00521489 -1.32881e-20 0.00290131)
(0.00185827 0.0154474 -2.73262e-16 -0.00506976 -1.27756e-17 0.00321149)
(-0.000687059 0.0342916 -3.14304e-19 -0.00190404 9.44498e-18 0.0025911)
(-0.00553304 0.0608628 -1.19301e-18 0.00399382 8.15597e-18 0.00153922)
(-0.0113407 0.092986 3.54055e-17 0.0108491 -1.03045e-16 0.000491535)
(-0.0190822 0.12762 -1.72824e-16 0.0190425 7.1086e-16 3.96978e-05)
(-0.00964469 0.154108 2.18665e-15 0.0104781 8.14331e-16 -0.000833446)
(-0.0374669 0.261212 4.48638e-15 0.0294864 1.75806e-15 0.00798055)
(0.00030628 -0.000258223 -6.67656e-21 -0.000296876 -1.24777e-20 -9.40391e-06)
(0.000259298 -0.000306082 -1.45496e-20 -0.000248912 -2.33136e-20 -1.03863e-05)
(0.000195911 -0.000347409 2.78036e-20 -0.000182639 4.22996e-20 -1.32723e-05)
(0.000125025 -0.000374211 3.91388e-20 -0.000109147 3.80664e-20 -1.5878e-05)
(5.17749e-05 -0.000382634 4.42355e-21 -3.28947e-05 -1.92063e-21 -1.88803e-05)
(-2.12929e-05 -0.000372943 -1.50097e-20 4.36687e-05 3.69037e-20 -2.23758e-05)
(-8.66743e-05 -0.000347085 2.84985e-19 0.000112589 2.85541e-19 -2.59148e-05)
(-0.000139539 -0.000308084 -2.66769e-19 0.000168993 -3.54231e-19 -2.94546e-05)
(-0.000178415 -0.000260562 7.45447e-20 0.00021168 1.92719e-20 -3.32643e-05)
(-0.000202003 -0.000209912 3.51839e-19 0.000238692 2.6064e-19 -3.6689e-05)
(-0.000211574 -0.000160037 2.76261e-19 0.000251484 2.80576e-19 -3.99102e-05)
(-0.000209291 -0.000114101 2.98953e-19 0.00025182 8.59036e-20 -4.25286e-05)
(-0.000197727 -7.42121e-05 -3.32354e-19 0.000241972 -2.52019e-19 -4.42447e-05)
(-0.000179866 -4.12315e-05 -2.07612e-19 0.000224684 -2.0827e-19 -4.48188e-05)
(-0.000157748 -1.50518e-05 2.27388e-20 0.000202223 -6.94621e-20 -4.44745e-05)
(-0.000133044 7.46923e-06 -5.02877e-19 0.000175189 3.54016e-20 -4.21448e-05)
(-0.000107614 2.66304e-05 -1.37694e-19 0.000145763 -1.74498e-19 -3.81483e-05)
(-8.50752e-05 4.31747e-05 -7.76536e-19 0.000118243 -6.03923e-19 -3.31683e-05)
(-6.0398e-05 5.32608e-05 7.26443e-20 8.47815e-05 -9.77598e-20 -2.43836e-05)
(-4.32115e-05 5.88428e-05 2.71114e-20 5.92799e-05 -6.18464e-20 -1.60684e-05)
(-3.80974e-05 7.09275e-05 -2.56505e-19 4.90764e-05 -3.03979e-21 -1.0979e-05)
(-4.10169e-05 9.53934e-05 4.29933e-20 4.93584e-05 9.50775e-21 -8.3415e-06)
(-3.74331e-05 0.000112372 -2.13635e-19 4.35037e-05 -4.34917e-20 -6.07058e-06)
(-0.000261145 0.00118836 -7.11869e-19 0.000311607 7.64344e-19 -5.04619e-05)
(-0.000610039 0.00657328 1.09272e-18 0.000889204 7.40463e-20 -0.000279165)
(3.78507e-06 9.55065e-05 7.73805e-20 6.01679e-07 4.12724e-20 -4.38675e-06)
(0.000228908 0.00118681 -1.28543e-19 -0.00016416 5.31435e-20 -6.47476e-05)
(0.00105545 0.00144927 6.40498e-19 -0.000883633 4.06501e-20 -0.000171817)
(0.00477096 -0.0115812 4.07068e-17 -0.00420447 2.4778e-18 -0.000566484)
(0.0101031 -0.10988 -1.00471e-17 -0.00884618 1.22811e-16 -0.00125694)
(-0.000347159 -0.478406 -5.32931e-16 0.0025397 -5.25848e-16 -0.00219254)
(-0.0767865 -1.29869 1.98908e-15 0.0794847 -1.86567e-15 -0.00269826)
(-0.263492 -2.42375 2.17755e-15 0.264357 -2.12327e-16 -0.000865487)
(-0.514083 -3.34389 -3.85054e-16 0.510663 -7.24128e-15 0.00342054)
(-0.715451 -3.7224 -5.82361e-15 0.709492 -1.76352e-15 0.00595925)
(-0.792837 -3.65037 6.99777e-16 0.790305 3.66407e-15 0.00253192)
(-0.80126 -3.42066 -9.96572e-15 0.79658 1.47828e-15 0.00468054)
(-0.573926 -3.01946 -6.98815e-15 0.584273 8.73387e-16 -0.0103469)
(-0.8147 -3.21254 8.11036e-15 0.786362 -4.94814e-15 0.0283378)
(0.000342224 -0.000198497 -3.61093e-21 -0.000335899 -3.70235e-21 -6.32499e-06)
(0.000364714 -0.000135328 1.28813e-20 -0.000359228 5.89864e-20 -5.48566e-06)
(0.000373312 -5.72451e-05 3.82387e-20 -0.000370622 8.49212e-20 -2.69012e-06)
(0.00036393 2.51559e-05 4.12138e-20 -0.00036261 -2.0134e-20 -1.32002e-06)
(0.000332411 0.000105543 -8.18516e-20 -0.000332513 -7.02831e-20 1.0205e-07)
(0.000278549 0.000174405 -9.03212e-21 -0.000278829 -1.00532e-19 2.79876e-07)
(0.000208874 0.000222873 -1.25577e-19 -0.000208618 -1.28906e-19 -2.56143e-07)
(0.000134091 0.000246333 -1.98241e-19 -0.000134121 -7.31362e-21 2.99313e-08)
(6.20829e-05 0.000246781 -5.7012e-20 -6.28876e-05 -3.14897e-20 8.04682e-07)
(-4.81525e-07 0.000226456 6.17282e-20 -6.61562e-07 -4.32123e-20 1.14309e-06)
(-4.60144e-05 0.000192083 6.11205e-20 4.50226e-05 1.40237e-19 9.9179e-07)
(-7.36466e-05 0.000153527 1.1507e-19 7.31322e-05 -4.46359e-20 5.14409e-07)
(-8.69238e-05 0.000117332 -9.83267e-20 8.71757e-05 -1.12756e-19 -2.51859e-07)
(-9.02497e-05 8.63931e-05 -1.8573e-20 9.13693e-05 4.19336e-20 -1.1196e-06)
(-8.73193e-05 6.17587e-05 8.96059e-20 8.93386e-05 -1.95333e-20 -2.01938e-06)
(-8.10776e-05 4.30063e-05 1.96677e-19 8.39015e-05 -1.40388e-20 -2.82387e-06)
(-7.35833e-05 2.93006e-05 -1.23431e-19 7.71376e-05 -3.53422e-20 -3.55422e-06)
(-6.6111e-05 1.94554e-05 -3.74812e-20 7.02675e-05 -5.46975e-20 -4.15646e-06)
(-5.93561e-05 1.23042e-05 -1.74876e-20 6.40056e-05 9.69325e-21 -4.64949e-06)
(-5.34503e-05 6.79484e-06 1.82722e-19 5.8436e-05 -7.2194e-20 -4.9857e-06)
(-4.83435e-05 2.2499e-06 3.29954e-20 5.35919e-05 -4.83302e-20 -5.24841e-06)
(-4.37598e-05 -1.90785e-06 -1.77871e-19 4.92024e-05 5.22123e-20 -5.44264e-06)
(-3.92321e-05 -6.02088e-06 -7.44204e-21 4.48497e-05 2.62693e-20 -5.61761e-06)
(-3.40472e-05 -9.84475e-06 -2.86271e-21 3.97791e-05 -1.75648e-20 -5.73185e-06)
(-2.84136e-05 -1.2248e-05 2.66895e-21 3.44236e-05 -2.18599e-22 -6.00997e-06)
(-2.34555e-05 -1.29978e-05 -1.36234e-19 3.00706e-05 -2.79734e-20 -6.61513e-06)
(-1.95444e-05 -1.28635e-05 -2.4088e-21 2.68443e-05 4.28348e-22 -7.29991e-06)
(-1.65195e-05 -1.23522e-05 2.92463e-20 2.44677e-05 7.75694e-22 -7.94825e-06)
(-1.3684e-05 -1.14347e-05 -1.04488e-21 2.18799e-05 -2.5076e-23 -8.19592e-06)
(-1.08692e-05 -1.02006e-05 6.77215e-22 1.871e-05 9.60131e-22 -7.84089e-06)
(-7.46337e-06 -8.18604e-06 -8.12894e-20 1.38321e-05 -2.92509e-21 -6.36878e-06)
(-4.20933e-06 -5.75538e-06 -2.18708e-21 8.61432e-06 -1.35893e-22 -4.40499e-06)
(-3.03675e-05 -5.73962e-05 3.84311e-21 7.74616e-05 -7.02742e-20 -4.70941e-05)
(-5.83558e-07 -4.6036e-05 1.72281e-17 0.000110473 1.55349e-18 -0.000109889)
(0.000237809 0.00060323 1.10217e-18 -0.000137132 1.23244e-19 -0.000100677)
(0.000888132 0.00334829 -1.88378e-16 -0.000948396 -3.56536e-17 6.02635e-05)
(0.00157513 0.0112168 1.25126e-15 -0.00205537 1.83699e-16 0.000480243)
(0.00671785 0.0278973 4.81181e-17 -0.0072087 -1.76465e-16 0.000490848)
(-0.00282635 0.104474 2.73059e-16 -0.00195338 -1.51798e-15 0.00477973)
(0.000222634 -0.000196128 -7.99889e-21 -0.000225649 -1.18887e-20 3.0156e-06)
(0.000184148 -0.000231624 -1.46002e-20 -0.000188508 -1.97225e-20 4.35981e-06)
(0.000134444 -0.000261247 4.96378e-20 -0.000139278 6.35965e-20 4.83416e-06)
(7.79988e-05 -0.000279186 -2.11739e-19 -8.41634e-05 -2.89664e-19 6.16452e-06)
(1.89322e-05 -0.000283319 5.25435e-20 -2.6481e-05 8.24251e-20 7.54881e-06)
(-4.0442e-05 -0.00027307 1.1458e-19 3.16121e-05 1.19122e-19 8.82988e-06)
(-9.48347e-05 -0.000249163 -9.77671e-20 8.42686e-05 -1.60264e-19 1.05661e-05)
(-0.000140347 -0.000213788 -6.58798e-20 0.000127929 1.13893e-20 1.2418e-05)
(-0.00017474 -0.000169936 -3.9361e-19 0.000160477 -3.72304e-19 1.42627e-05)
(-0.000196679 -0.000121817 -5.50681e-20 0.000180319 -1.4866e-19 1.63604e-05)
(-0.000206279 -7.28691e-05 1.08139e-20 0.000187824 -3.48934e-20 1.84546e-05)
(-0.000204704 -2.62634e-05 -1.97002e-19 0.000184162 -2.50236e-19 2.05422e-05)
(-0.000193971 1.54449e-05 9.43962e-20 0.000171446 1.13236e-19 2.25255e-05)
(-0.000176465 5.07377e-05 -3.87139e-19 0.000152269 -2.0124e-19 2.41962e-05)
(-0.000154504 7.94333e-05 8.43452e-20 0.000128935 4.69818e-20 2.55694e-05)
(-0.000130529 0.000100459 3.68523e-19 0.000104589 3.08324e-19 2.59395e-05)
(-0.000106112 0.000113116 -5.04647e-19 8.13022e-05 -1.43531e-19 2.48101e-05)
(-8.18538e-05 0.000118157 -9.24164e-20 5.91549e-05 4.15414e-19 2.26989e-05)
(-5.96912e-05 0.000118134 -3.12731e-20 3.96028e-05 -5.30169e-20 2.00884e-05)
(-3.90794e-05 0.000110468 -3.68862e-19 2.25744e-05 -5.97254e-20 1.6505e-05)
(-2.22603e-05 9.5066e-05 3.49558e-19 1.03648e-05 2.14463e-19 1.18955e-05)
(-1.09454e-05 7.12807e-05 8.51048e-21 4.16583e-06 -1.22977e-20 6.77955e-06)
(-6.76569e-06 6.98635e-05 1.7847e-19 2.13116e-06 4.97313e-20 4.63453e-06)
(-2.522e-06 7.9844e-05 1.31632e-19 -1.21807e-06 4.39158e-20 3.74007e-06)
(3.77031e-06 8.69971e-05 -1.27545e-20 -6.74812e-06 -1.20132e-21 2.97781e-06)
(9.47429e-06 8.92381e-05 1.37905e-21 -1.15691e-05 -4.99631e-21 2.09482e-06)
(2.71898e-05 0.000189825 3.0072e-20 -2.97911e-05 -8.3221e-21 2.60131e-06)
(0.000265955 0.00162547 -1.21256e-19 -0.000276622 -1.83188e-19 1.06666e-05)
(0.00149985 0.00802427 -8.58774e-18 -0.00151308 -4.27609e-19 1.32292e-05)
(0.000940778 0.00413255 4.83285e-19 -0.00093226 2.75018e-20 -8.51854e-06)
(0.00272766 0.00859772 -2.63417e-18 -0.00268179 1.0118e-18 -4.58688e-05)
(0.010566 0.0120337 -2.22959e-16 -0.0103384 -1.57888e-16 -0.000227537)
(0.018727 -0.0982977 -8.16379e-17 -0.0178973 -2.52554e-16 -0.000829698)
(-0.0256065 -0.583949 -5.45201e-15 0.0275999 5.37121e-16 -0.00199339)
(-0.182139 -1.48974 7.64607e-16 0.183956 2.51024e-15 -0.00181768)
(-0.400682 -2.39903 -8.62511e-19 0.401394 1.32879e-19 -0.000712741)
(-0.58598 -2.96379 -3.40257e-16 0.582019 4.54451e-15 0.00396172)
(-0.525488 -3.08577 1.42267e-16 0.53612 1.90163e-16 -0.0106315)
(-0.773285 -3.40209 -1.3257e-14 0.735798 2.7473e-15 0.0374877)
(0.000253108 -0.000152902 1.41154e-20 -0.000256266 9.06102e-21 3.15743e-06)
(0.000274184 -0.000106572 -3.97534e-20 -0.000275956 -6.40744e-20 1.7728e-06)
(0.000285724 -4.96652e-05 -2.19734e-20 -0.000287343 3.7293e-20 1.61917e-06)
(0.000283464 1.17712e-05 1.06087e-19 -0.000284288 7.78999e-20 8.23686e-07)
(0.000264476 7.30935e-05 -3.95895e-20 -0.000265052 -2.04179e-19 5.76419e-07)
(0.000228057 0.000127523 -7.08502e-20 -0.000228065 4.80787e-20 8.48499e-09)
(0.00017833 0.000168591 1.78819e-19 -0.000178004 1.39204e-19 -3.25333e-07)
(0.000122699 0.000192328 -5.94565e-20 -0.00012258 -1.6247e-19 -1.19071e-07)
(6.67712e-05 0.00019883 -1.4318e-19 -6.6951e-05 -6.47221e-20 1.79778e-07)
(1.59934e-05 0.000188953 -1.06525e-19 -1.6333e-05 4.16259e-20 3.3958e-07)
(-2.36405e-05 0.000167061 1.17746e-19 2.33371e-05 4.47272e-21 3.03437e-07)
(-5.04749e-05 0.000139406 -6.73462e-20 5.01956e-05 -6.87843e-20 2.79223e-07)
(-6.58569e-05 0.000110987 -8.61599e-20 6.55264e-05 6.8761e-20 3.30486e-07)
(-7.23438e-05 8.47906e-05 8.34215e-20 7.18771e-05 3.5889e-20 4.66761e-07)
(-7.25481e-05 6.24352e-05 -1.22302e-19 7.18744e-05 2.04057e-20 6.73719e-07)
(-6.88982e-05 4.43326e-05 -3.28184e-20 6.79432e-05 -9.02465e-20 9.54973e-07)
(-6.32425e-05 3.0267e-05 3.64583e-20 6.19784e-05 4.66757e-20 1.26412e-06)
(-5.69267e-05 1.95705e-05 -1.33599e-19 5.53454e-05 6.26444e-21 1.58136e-06)
(-5.07691e-05 1.14598e-05 5.30564e-20 4.88922e-05 -9.52431e-22 1.87694e-06)
(-4.5112e-05 5.13604e-06 -2.02176e-19 4.29596e-05 1.38201e-20 2.15232e-06)
(-4.00221e-05 -2.29956e-08 -2.78506e-20 3.7644e-05 7.5953e-21 2.37814e-06)
(-3.53181e-05 -4.52336e-06 1.61989e-19 3.27491e-05 1.49754e-20 2.56901e-06)
(-3.06274e-05 -8.65394e-06 1.5524e-19 2.79075e-05 -3.55301e-20 2.71989e-06)
(-2.53523e-05 -1.22589e-05 -1.29376e-19 2.2432e-05 9.59055e-21 2.92031e-06)
(-1.95036e-05 -1.45491e-05 -1.80446e-21 1.63509e-05 1.07798e-21 3.15276e-06)
(-1.39163e-05 -1.52711e-05 -1.23843e-19 1.05755e-05 3.77707e-20 3.34087e-06)
(-9.03128e-06 -1.50183e-05 -2.44107e-21 5.38497e-06 2.64735e-23 3.6463e-06)
(-4.81579e-06 -1.41933e-05 -1.97321e-23 7.45437e-07 -1.03266e-21 4.07036e-06)
(-1.23693e-06 -1.3132e-05 -1.41947e-22 -3.32323e-06 2.87027e-23 4.56016e-06)
(1.63628e-06 -1.12933e-05 4.45379e-20 -6.35332e-06 3.68713e-22 4.71704e-06)
(4.36916e-06 -1.18023e-05 1.64919e-22 -1.00254e-05 -3.69272e-22 5.65623e-06)
(3.22994e-06 -5.83737e-06 4.28265e-23 -6.13109e-06 -1.51499e-24 2.90115e-06)
(1.18574e-05 -1.72131e-05 -6.12654e-19 -1.98326e-05 -4.59306e-20 7.97525e-06)
(8.60629e-05 -0.000108067 -4.00447e-18 -0.000127976 -3.41999e-19 4.19127e-05)
(0.000239668 -0.000261204 9.53599e-20 -0.000317266 9.59901e-21 7.75977e-05)
(0.00056909 -0.000463047 -4.28155e-17 -0.000661058 -6.80703e-19 9.19676e-05)
(0.000259747 -9.30342e-05 2.00298e-18 -0.000280779 -1.4931e-17 2.10312e-05)
(0.000882121 0.000200029 1.37781e-18 -0.000861725 2.72008e-19 -2.03967e-05)
(0.00383349 0.0196882 -5.07863e-16 -0.00520531 7.05485e-17 0.00137181)
(0.00018413 -0.000161014 1.57561e-20 -0.000183018 1.84807e-20 -1.11164e-06)
(0.000155879 -0.000189721 -1.18905e-20 -0.000154872 -1.33736e-20 -1.00703e-06)
(0.000118628 -0.000214942 4.94815e-23 -0.000117023 -9.88839e-22 -1.60468e-06)
(7.60893e-05 -0.00023239 -6.78615e-21 -7.41976e-05 6.36064e-21 -1.89167e-06)
(3.10361e-05 -0.000239974 1.51916e-19 -2.8767e-05 1.60409e-19 -2.26911e-06)
(-1.54505e-05 -0.000237317 -9.61121e-20 1.84272e-05 -1.2348e-19 -2.97672e-06)
(-5.93401e-05 -0.00022451 -7.26164e-21 6.29576e-05 3.18244e-20 -3.61755e-06)
(-9.76926e-05 -0.000202637 3.28448e-19 0.000102082 3.16247e-19 -4.38912e-06)
(-0.00012879 -0.000173559 -7.7523e-20 0.000134176 5.60931e-21 -5.38567e-06)