/*--------------------------------*- C++ -*----------------------------------*\
| =========                 |                                                 |
| \\      /  F ield         | OpenFOAM: The Open Source CFD Toolbox           |
|  \\    /   O peration     | Version:  2312                                  |
|   \\  /    A nd           | Website:  www.openfoam.com                      |
|    \\/     M anipulation  |                                                 |
\*---------------------------------------------------------------------------*/
FoamFile
{
    version     2.0;
    format      ascii;
    arch        "LSB;label=32;scalar=64";
    class       volScalarField;
    location    "450";
    object      turbulenceProperties:nut;
}
// * * * * * * * * * * * * * * * * * * * * * * * * * * * * * * * * * * * * * //

dimensions      [0 2 -1 0 0 0 0];

internalField   nonuniform List<scalar> 
10720
(
2.5808e-05
2.95346e-05
3.45224e-05
4.0985e-05
4.93088e-05
6.00252e-05
7.38545e-05
9.11587e-05
0.000112975
0.000140349
0.000175234
0.000220745
0.000281312
0.000364892
0.000485067
0.000663861
0.000945882
0.00139527
0.00221737
0.00358935
0.00690168
0.012712
0.0339138
0.0760473
0.0937333
0.0946594
0.0957032
0.0992379
0.102755
0.104492
0.104466
0.103215
0.100845
0.0974136
0.0927939
0.0869122
0.078449
0.0683181
0.0332558
2.25824e-05
1.98037e-05
1.70736e-05
1.45837e-05
1.22497e-05
1.01071e-05
8.2445e-06
6.96115e-06
8.09648e-06
1.07909e-05
1.54814e-05
2.3227e-05
3.5576e-05
5.44541e-05
8.13875e-05
0.000117945
0.000167179
0.000236277
0.000339384
0.000501811
0.000773255
0.00124196
0.00211758
0.0037699
0.0073281
0.0147229
0.0324778
0.0663217
0.0934697
0.105025
0.108433
0.109375
0.109471
0.108975
0.107974
0.106577
0.104431
0.101996
0.0924605
5.08548e-06
4.98033e-06
4.88546e-06
4.80683e-06
4.71662e-06
4.6338e-06
4.57245e-06
4.51875e-06
4.49564e-06
4.51593e-06
4.54347e-06
4.81844e-06
5.87874e-06
8.65245e-06
1.6411e-05
3.68091e-05
8.38806e-05
0.000162767
0.00031543
0.00058855
0.00132035
0.00282979
0.00711251
0.0204721
0.0394382
0.063211
0.0924913
0.12367
0.148715
0.162677
0.167971
0.168788
0.167198
0.163847
0.159337
0.153838
0.148528
0.139508
0.139918
5.16908e-06
5.28233e-06
5.37884e-06
5.50984e-06
5.64413e-06
5.78001e-06
5.91116e-06
6.02176e-06
5.95913e-06
5.8177e-06
5.6246e-06
5.3903e-06
5.12406e-06
4.82943e-06
4.4957e-06
4.11974e-06
3.67667e-06
3.16244e-06
2.54828e-06
1.84351e-06
1.07405e-06
4.20529e-07
5.41007e-08
1.46916e-09
9.30814e-09
9.37215e-05
0.00053996
0.00415679
0.0141156
0.0287197
0.0437274
0.0550627
0.0618256
0.0656074
0.0680052
0.0699955
0.0717272
0.075299
0.0784602
6.26616e-06
6.28349e-06
6.30147e-06
6.3208e-06
6.34449e-06
6.371e-06
6.40131e-06
6.43677e-06
6.47862e-06
6.52762e-06
6.58584e-06
6.65749e-06
6.73655e-06
6.87983e-06
6.90015e-06
6.45061e-06
4.78309e-06
4.44397e-06
6.5164e-08
9.69627e-05
1.12182e-17
2.5205e-05
6.70797e-07
0.000554375
0.00298141
0.00755305
0.015685
0.031023
0.057351
0.093798
0.132818
0.164506
0.184906
0.196742
0.203439
0.206325
0.207575
0.201483
0.210276
6.25289e-06
6.23387e-06
6.21932e-06
6.19774e-06
6.1792e-06
6.15928e-06
6.14154e-06
6.12751e-06
6.13229e-06
6.14725e-06
6.16688e-06
6.19086e-06
6.2202e-06
6.25305e-06
6.29008e-06
6.331e-06
6.37749e-06
6.43078e-06
6.49448e-06
6.57193e-06
6.67138e-06
6.79893e-06
6.98021e-06
7.17351e-06
7.43588e-06
7.15665e-06
7.24721e-06
2.48425e-06
8.36898e-05
0.000790359
0.00301747
0.00754202
0.0142529
0.0224362
0.0311581
0.0396034
0.0470043
0.053674
0.0631676
6.08613e-06
6.08373e-06
6.08313e-06
6.0835e-06
6.08442e-06
6.08709e-06
6.09198e-06
6.09872e-06
6.10877e-06
6.12237e-06
6.14033e-06
6.16384e-06
6.19442e-06
6.2333e-06
6.28536e-06
6.33527e-06
6.22282e-06
5.98123e-06
3.87579e-06
1.26844e-06
1.55441e-08
2.42944e-07
1.13856e-09
9.18698e-05
0.00062331
1.81336e-06
0.000217091
0.00084641
0.00416744
0.0136559
0.0356382
0.0727509
0.118804
0.161313
0.19321
0.215353
0.231946
0.239146
0.255239
6.0868e-06
6.08915e-06
6.09227e-06
6.09446e-06
6.09826e-06
6.1003e-06
6.10162e-06
6.10255e-06
6.1004e-06
6.09771e-06
6.09422e-06
6.09049e-06
6.08702e-06
6.0836e-06
6.08027e-06
6.07679e-06
6.07312e-06
6.06912e-06
6.06406e-06
6.05898e-06
6.05362e-06
6.04789e-06
6.04108e-06
6.03481e-06
6.02803e-06
6.03037e-06
6.0231e-06
6.08257e-06
5.99879e-06
5.95254e-06
5.20535e-06
4.15453e-06
0.000226588
0.00104722
0.00305796
0.00692063
0.0131075
0.0218261
0.0392151
6.11119e-06
6.11175e-06
6.11202e-06
6.11291e-06
6.11446e-06
6.11643e-06
6.1191e-06
6.12268e-06
6.12738e-06
6.13356e-06
6.14164e-06
6.15222e-06
6.1661e-06
6.18392e-06
6.20816e-06
6.23725e-06
6.27866e-06
6.30101e-06
6.52106e-06
6.28433e-06
4.88244e-06
1.22782e-06
1.4939e-08
4.77366e-10
0
3.80943e-09
1.1296e-05
0.000174035
0.000936111
0.000546668
0.00164669
0.00799558
0.0295493
0.0706773
0.124102
0.175048
0.217177
0.248041
0.278262
6.11124e-06
6.10986e-06
6.11056e-06
6.10951e-06
6.11039e-06
6.10918e-06
6.10707e-06
6.10518e-06
6.10411e-06
6.10386e-06
6.10385e-06
6.10376e-06
6.10411e-06
6.10464e-06
6.10561e-06
6.10684e-06
6.10839e-06
6.11023e-06
6.11242e-06
6.1149e-06
6.11766e-06
6.1207e-06
6.12414e-06
6.12794e-06
6.13287e-06
6.13716e-06
6.15041e-06
6.13005e-06
6.27275e-06
5.69499e-06
8.70889e-06
5.8055e-07
2.55756e-05
0.000245433
0.000716337
0.00164885
0.000735635
0.00164145
0.0136835
6.10507e-06
6.10485e-06
6.10514e-06
6.1054e-06
6.1055e-06
6.1059e-06
6.1065e-06
6.10727e-06
6.10849e-06
6.11018e-06
6.1125e-06
6.11572e-06
6.12008e-06
6.12598e-06
6.13415e-06
6.14499e-06
6.15925e-06
6.17482e-06
6.22281e-06
6.2821e-06
6.65397e-06
6.10753e-06
4.61762e-06
3.32011e-07
9.53832e-09
1.95308e-09
1.00281e-10
0
0
0.000101203
0.000366917
0.00182462
0.000368364
0.00871883
0.0380555
0.0932799
0.160404
0.223987
0.278309
6.1046e-06
6.10391e-06
6.10482e-06
6.1046e-06
6.1063e-06
6.10603e-06
6.10467e-06
6.10346e-06
6.10248e-06
6.10188e-06
6.10144e-06
6.10096e-06
6.10071e-06
6.10055e-06
6.10054e-06
6.10057e-06
6.10069e-06
6.10089e-06
6.10114e-06
6.10139e-06
6.10162e-06
6.10175e-06
6.10182e-06
6.10147e-06
6.1014e-06
6.10172e-06
6.10212e-06
6.10391e-06
6.10352e-06
6.11285e-06
6.09582e-06
6.18551e-06
5.45121e-06
3.42846e-06
2.71431e-12
3.08365e-09
0.000163531
0.000429439
0.00237807
6.10531e-06
6.10553e-06
6.10569e-06
6.10573e-06
6.10586e-06
6.10595e-06
6.10612e-06
6.10646e-06
6.10694e-06
6.10765e-06
6.10869e-06
6.11015e-06
6.11221e-06
6.11508e-06
6.11904e-06
6.12463e-06
6.13208e-06
6.14043e-06
6.15024e-06
6.15261e-06
6.22768e-06
6.48786e-06
6.9949e-06
6.00025e-06
3.43197e-06
1.19429e-06
5.9971e-08
8.1075e-09
2.86647e-09
2.30025e-11
0
0
5.31634e-05
0.00204895
0.00166964
0.0217206
0.0782043
0.166171
0.252287
6.10484e-06
6.10378e-06
6.10417e-06
6.10385e-06
6.1055e-06
6.10544e-06
6.10424e-06
6.10309e-06
6.10219e-06
6.10168e-06
6.10132e-06
6.10113e-06
6.101e-06
6.10106e-06
6.10101e-06
6.10105e-06
6.10122e-06
6.10145e-06
6.10178e-06
6.1022e-06
6.10271e-06
6.10328e-06
6.10396e-06
6.10476e-06
6.10574e-06
6.10703e-06
6.1087e-06
6.11079e-06
6.11342e-06
6.11667e-06
6.12013e-06
6.12433e-06
6.17611e-06
5.87276e-06
5.32383e-06
1.16912e-06
1.0994e-08
1.66655e-11
5.98203e-05
6.10488e-06
6.10502e-06
6.10531e-06
6.10529e-06
6.1051e-06
6.10498e-06
6.10482e-06
6.10466e-06
6.10461e-06
6.10462e-06
6.10471e-06
6.10494e-06
6.10531e-06
6.1059e-06
6.10679e-06
6.10817e-06
6.11015e-06
6.1126e-06
6.11573e-06
6.11604e-06
6.10883e-06
6.15165e-06
6.31897e-06
6.7455e-06
6.84885e-06
6.31271e-06
5.08322e-06
3.19143e-06
1.49568e-06
1.20095e-08
7.23562e-09
1.56661e-11
0
0
0.000383904
0.00541666
0.01614
0.0904272
0.200032
6.10429e-06
6.10315e-06
6.10315e-06
6.10273e-06
6.10435e-06
6.10449e-06
6.10359e-06
6.10255e-06
6.10175e-06
6.10128e-06
6.10097e-06
6.10081e-06
6.10074e-06
6.10083e-06
6.10091e-06
6.10103e-06
6.10109e-06
6.1011e-06
6.10119e-06
6.10128e-06
6.10141e-06
6.10155e-06
6.10172e-06
6.10187e-06
6.102e-06
6.10217e-06
6.1024e-06
6.10265e-06
6.10292e-06
6.10302e-06
6.10351e-06
6.10116e-06
6.11446e-06
6.08675e-06
6.29138e-06
5.58455e-06
3.00118e-06
1.78073e-08
5.67185e-07
6.10481e-06
6.10494e-06
6.10509e-06
6.1049e-06
6.10472e-06
6.10444e-06
6.10421e-06
6.10409e-06
6.10396e-06
6.10391e-06
6.10393e-06
6.10403e-06
6.10426e-06
6.10466e-06
6.10528e-06
6.10623e-06
6.10765e-06
6.10952e-06
6.1115e-06
6.11366e-06
6.11213e-06
6.10808e-06
6.11212e-06
6.20537e-06
6.40149e-06
6.64566e-06
6.90792e-06
6.93418e-06
6.78847e-06
4.87614e-06
2.86146e-06
7.62441e-09
3.14281e-09
0
0
0
0.00442098
0.0309607
0.132895
6.10424e-06
6.10298e-06
6.10263e-06
6.10205e-06
6.10358e-06
6.10384e-06
6.10314e-06
6.10218e-06
6.10149e-06
6.10105e-06
6.1008e-06
6.10067e-06
6.10061e-06
6.10069e-06
6.10078e-06
6.10093e-06
6.10106e-06
6.1012e-06
6.10129e-06
6.10129e-06
6.10136e-06
6.10148e-06
6.10164e-06
6.10183e-06
6.10205e-06
6.10239e-06
6.10289e-06
6.10356e-06
6.10441e-06
6.10548e-06
6.10683e-06
6.10828e-06
6.11064e-06
6.1093e-06
6.14484e-06
6.2116e-06
6.61212e-06
4.50933e-06
2.61857e-09
6.10473e-06
6.10474e-06
6.10475e-06
6.10447e-06
6.10416e-06
6.10388e-06
6.10358e-06
6.10335e-06
6.10314e-06
6.10296e-06
6.1028e-06
6.10269e-06
6.10261e-06
6.10255e-06
6.10253e-06
6.10252e-06
6.1026e-06
6.10267e-06
6.10287e-06
6.10371e-06
6.10462e-06
6.10437e-06
6.10264e-06
6.10183e-06
6.12117e-06
6.1766e-06
6.28519e-06
6.49816e-06
6.84e-06
7.22412e-06
7.52648e-06
5.19982e-06
1.21722e-06
1.0901e-08
0
0
0
0.00870662
0.071629
6.10423e-06
6.10295e-06
6.10231e-06
6.10153e-06
6.10293e-06
6.10328e-06
6.10272e-06
6.10185e-06
6.10125e-06
6.10086e-06
6.10071e-06
6.10054e-06
6.10046e-06
6.10051e-06
6.10058e-06
6.10074e-06
6.10091e-06
6.10109e-06
6.10124e-06
6.10139e-06
6.1015e-06
6.10158e-06
6.10157e-06
6.10159e-06
6.10163e-06
6.10173e-06
6.10192e-06
6.10218e-06
6.10252e-06
6.10295e-06
6.10337e-06
6.10409e-06
6.10374e-06
6.10935e-06
6.09186e-06
6.19296e-06
5.82541e-06
8.76104e-06
5.69693e-07
6.10461e-06
6.10447e-06
6.10434e-06
6.104e-06
6.10365e-06
6.10332e-06
6.10302e-06
6.10282e-06
6.10263e-06
6.1025e-06
6.1024e-06
6.10234e-06
6.10232e-06
6.10236e-06
6.10246e-06
6.10267e-06
6.10299e-06
6.1035e-06
6.10406e-06
6.10464e-06
6.10526e-06
6.10546e-06
6.1058e-06
6.10555e-06
6.10282e-06
6.09784e-06
6.09418e-06
6.11444e-06
6.18889e-06
6.42357e-06
6.84179e-06
7.63471e-06
7.21167e-06
3.03618e-06
1.58335e-08
0
0
0.000680166
0.0326057
6.10424e-06
6.103e-06
6.10214e-06
6.10119e-06
6.10245e-06
6.10283e-06
6.10236e-06
6.10157e-06
6.10105e-06
6.10072e-06
6.10056e-06
6.1004e-06
6.1003e-06
6.10031e-06
6.10037e-06
6.10051e-06
6.10067e-06
6.10087e-06
6.10105e-06
6.10123e-06
6.10138e-06
6.10153e-06
6.10164e-06
6.10173e-06
6.10178e-06
6.10185e-06
6.10199e-06
6.10223e-06
6.10255e-06
6.10299e-06
6.1035e-06
6.10436e-06
6.10434e-06
6.10885e-06
6.09365e-06
6.16476e-06
5.85605e-06
7.14866e-06
4.37064e-06
6.10443e-06
6.10414e-06
6.10391e-06
6.10353e-06
6.10315e-06
6.10282e-06
6.10253e-06
6.10232e-06
6.10214e-06
6.10201e-06
6.1019e-06
6.10182e-06
6.10175e-06
6.10172e-06
6.10172e-06
6.10176e-06
6.10184e-06
6.10197e-06
6.10219e-06
6.10259e-06
6.10324e-06
6.10396e-06
6.1046e-06
6.10587e-06
6.10744e-06
6.10727e-06
6.10107e-06
6.08766e-06
6.07022e-06
6.08583e-06
6.15123e-06
6.49557e-06
7.22182e-06
7.80544e-06
4.01351e-06
1.05487e-08
0
0.000277846
0.0128889
6.10423e-06
6.10306e-06
6.10205e-06
6.10095e-06
6.10207e-06
6.10244e-06
6.10204e-06
6.10131e-06
6.10085e-06
6.10055e-06
6.10041e-06
6.10027e-06
6.10014e-06
6.10012e-06
6.10013e-06
6.10024e-06
6.10039e-06
6.10057e-06
6.10077e-06
6.10098e-06
6.10119e-06
6.1014e-06
6.10158e-06
6.10174e-06
6.10189e-06
6.10197e-06
6.10201e-06
6.10209e-06
6.10225e-06
6.10248e-06
6.10278e-06
6.10322e-06
6.10347e-06
6.10505e-06
6.10162e-06
6.11925e-06
6.05973e-06
6.20383e-06
6.16218e-06
6.10419e-06
6.10377e-06
6.10346e-06
6.10308e-06
6.1027e-06
6.10237e-06
6.1021e-06
6.10192e-06
6.10176e-06
6.10166e-06
6.1016e-06
6.10155e-06
6.10152e-06
6.10152e-06
6.10154e-06
6.10161e-06
6.10171e-06
6.10189e-06
6.10214e-06
6.10245e-06
6.10285e-06
6.10338e-06
6.10391e-06
6.10461e-06
6.10606e-06
6.10836e-06
6.10998e-06
6.10775e-06
6.09772e-06
6.08114e-06
6.0584e-06
6.06384e-06
6.25129e-06
6.81124e-06
8.5398e-06
2.5179e-06
5.44003e-12
7.10785e-05
0.00427074
6.10416e-06
6.10311e-06
6.10201e-06
6.1008e-06
6.10176e-06
6.10211e-06
6.10175e-06
6.10109e-06
6.10067e-06
6.10039e-06
6.10023e-06
6.10009e-06
6.09995e-06
6.0999e-06
6.0999e-06
6.09998e-06
6.1001e-06
6.10028e-06
6.10049e-06
6.10073e-06
6.10097e-06
6.10122e-06
6.10144e-06
6.10164e-06
6.10184e-06
6.10198e-06
6.10204e-06
6.10208e-06
6.10216e-06
6.10232e-06
6.10255e-06
6.10287e-06
6.1033e-06
6.10368e-06
6.10475e-06
6.10285e-06
6.11692e-06
6.05231e-06
6.25705e-06
6.10389e-06
6.10339e-06
6.10305e-06
6.10267e-06
6.1023e-06
6.10196e-06
6.10172e-06
6.10158e-06
6.10146e-06
6.10141e-06
6.10138e-06
6.10135e-06
6.10135e-06
6.10135e-06
6.10136e-06
6.1014e-06
6.10147e-06
6.10157e-06
6.10172e-06
6.10195e-06
6.10227e-06
6.1027e-06
6.10324e-06
6.10382e-06
6.10463e-06
6.10607e-06
6.10835e-06
6.11071e-06
6.11154e-06
6.10767e-06
6.09712e-06
6.06788e-06
6.04885e-06
6.0896e-06
6.70682e-06
1.02628e-05
1.28558e-11
1.22632e-06
0.00108059
6.10402e-06
6.10312e-06
6.10199e-06
6.10069e-06
6.1015e-06
6.10183e-06
6.1015e-06
6.10089e-06
6.10049e-06
6.10022e-06
6.10005e-06
6.09993e-06
6.09977e-06
6.09969e-06
6.09967e-06
6.09974e-06
6.09985e-06
6.10003e-06
6.10023e-06
6.10047e-06
6.10072e-06
6.10098e-06
6.10124e-06
6.10147e-06
6.1017e-06
6.10189e-06
6.10202e-06
6.10208e-06
6.1021e-06
6.10217e-06
6.10231e-06
6.1025e-06
6.10282e-06
6.10303e-06
6.1041e-06
6.10209e-06
6.11257e-06
6.08122e-06
6.1463e-06
6.10356e-06
6.10303e-06
6.10266e-06
6.10229e-06
6.10193e-06
6.10161e-06
6.10142e-06
6.10132e-06
6.10126e-06
6.10124e-06
6.10125e-06
6.10126e-06
6.10128e-06
6.10131e-06
6.10134e-06
6.10139e-06
6.10145e-06
6.10155e-06
6.10167e-06
6.10186e-06
6.10209e-06
6.10241e-06
6.10282e-06
6.10333e-06
6.10395e-06
6.10481e-06
6.10619e-06
6.10816e-06
6.11064e-06
6.11275e-06
6.11339e-06
6.10969e-06
6.07778e-06
6.10866e-06
5.64461e-06
9.251e-06
2.66056e-06
2.51918e-10
5.67232e-05
6.10383e-06
6.10309e-06
6.10198e-06
6.10063e-06
6.10129e-06
6.10156e-06
6.10126e-06
6.1007e-06
6.10032e-06
6.10004e-06
6.09987e-06
6.09974e-06
6.09958e-06
6.0995e-06
6.09946e-06
6.09951e-06
6.09961e-06
6.09977e-06
6.09996e-06
6.10019e-06
6.10045e-06
6.10072e-06
6.101e-06
6.10126e-06
6.10152e-06
6.10174e-06
6.10192e-06
6.10204e-06
6.1021e-06
6.10212e-06
6.10219e-06
6.10232e-06
6.10253e-06
6.10275e-06
6.10326e-06
6.10312e-06
6.10555e-06
6.10204e-06
6.10724e-06
6.10323e-06
6.1027e-06
6.1023e-06
6.10194e-06
6.10161e-06
6.10134e-06
6.10119e-06
6.10114e-06
6.10113e-06
6.10117e-06
6.10121e-06
6.10126e-06
6.1013e-06
6.10135e-06
6.10139e-06
6.10144e-06
6.10149e-06
6.10156e-06
6.10166e-06
6.1018e-06
6.10199e-06
6.10224e-06
6.10256e-06
6.10298e-06
6.10352e-06
6.10422e-06
6.10516e-06
6.10645e-06
6.10815e-06
6.11048e-06
6.1124e-06
6.11887e-06
6.10148e-06
6.16563e-06
5.82136e-06
6.4575e-06
9.73045e-06
5.20918e-11
4.46016e-07
6.10361e-06
6.10301e-06
6.10194e-06
6.10058e-06
6.1011e-06
6.10133e-06
6.10104e-06
6.10053e-06
6.10015e-06
6.09986e-06
6.0997e-06
6.09957e-06
6.0994e-06
6.0993e-06
6.09926e-06
6.0993e-06
6.09939e-06
6.09953e-06
6.09972e-06
6.09995e-06
6.1002e-06
6.10048e-06
6.10076e-06
6.10104e-06
6.10133e-06
6.10158e-06
6.10179e-06
6.10196e-06
6.10208e-06
6.10213e-06
6.10215e-06
6.10221e-06
6.10233e-06
6.10251e-06
6.10277e-06
6.10315e-06
6.10337e-06
6.10572e-06
6.10267e-06
6.10292e-06
6.10239e-06
6.10197e-06
6.10162e-06
6.10134e-06
6.10112e-06
6.10104e-06
6.10104e-06
6.10108e-06
6.10115e-06
6.10122e-06
6.10129e-06
6.10135e-06
6.10141e-06
6.10146e-06
6.10151e-06
6.10157e-06
6.10164e-06
6.10172e-06
6.10184e-06
6.10199e-06
6.10219e-06
6.10245e-06
6.10278e-06
6.10323e-06
6.10383e-06
6.10461e-06
6.10561e-06
6.10683e-06
6.10852e-06
6.10992e-06
6.11454e-06
6.11235e-06
6.12423e-06
6.19248e-06
5.27084e-06
1.21054e-05
4.0835e-10
2.47851e-16
6.10336e-06
6.1029e-06
6.10189e-06
6.10054e-06
6.10093e-06
6.10111e-06
6.10084e-06
6.10035e-06
6.09997e-06
6.09969e-06
6.09951e-06
6.09938e-06
6.09921e-06
6.09912e-06
6.09908e-06
6.09911e-06
6.09919e-06
6.09932e-06
6.09949e-06
6.0997e-06
6.09995e-06
6.10023e-06
6.10053e-06
6.10083e-06
6.10112e-06
6.10139e-06
6.10163e-06
6.10183e-06
6.10199e-06
6.10209e-06
6.10214e-06
6.10216e-06
6.10222e-06
6.10234e-06
6.10252e-06
6.10284e-06
6.10296e-06
6.10488e-06
6.10357e-06
6.10263e-06
6.10209e-06
6.10166e-06
6.10135e-06
6.10111e-06
6.10095e-06
6.10094e-06
6.10099e-06
6.10107e-06
6.10117e-06
6.10126e-06
6.10135e-06
6.10143e-06
6.1015e-06
6.10156e-06
6.10162e-06
6.10167e-06
6.10174e-06
6.10181e-06
6.10191e-06
6.10203e-06
6.1022e-06
6.10241e-06
6.10269e-06
6.10306e-06
6.10357e-06
6.10425e-06
6.1051e-06
6.10613e-06
6.1074e-06
6.1089e-06
6.10994e-06
6.11856e-06
6.08319e-06
6.31146e-06
5.31166e-06
9.47015e-06
1.61868e-06
4.97595e-10
6.10309e-06
6.10277e-06
6.10183e-06
6.1005e-06
6.10078e-06
6.10091e-06
6.10064e-06
6.10019e-06
6.09981e-06
6.09952e-06
6.09934e-06
6.0992e-06
6.09905e-06
6.09895e-06
6.09891e-06
6.09893e-06
6.099e-06
6.09912e-06
6.09928e-06
6.09948e-06
6.09972e-06
6.1e-06
6.1003e-06
6.1006e-06
6.10091e-06
6.10119e-06
6.10145e-06
6.10168e-06
6.10187e-06
6.10201e-06
6.10212e-06
6.10216e-06
6.10218e-06
6.10224e-06
6.10236e-06
6.10257e-06
6.10278e-06
6.10404e-06
6.10381e-06
6.10234e-06
6.10182e-06
6.10138e-06
6.10112e-06
6.10094e-06
6.10085e-06
6.10089e-06
6.10098e-06
6.10109e-06
6.10121e-06
6.10132e-06
6.10142e-06
6.10151e-06
6.10159e-06
6.10165e-06
6.10171e-06
6.10177e-06
6.10183e-06
6.1019e-06
6.10198e-06
6.10209e-06
6.10222e-06
6.1024e-06
6.10263e-06
6.10295e-06
6.10338e-06
6.10396e-06
6.1047e-06
6.10562e-06
6.10664e-06
6.10831e-06
6.10787e-06
6.11868e-06
6.08114e-06
6.24403e-06
5.7445e-06
6.92512e-06
6.84734e-06
8.22876e-08
6.10282e-06
6.10261e-06
6.10174e-06
6.10046e-06
6.10063e-06
6.10072e-06
6.10046e-06
6.10002e-06
6.09964e-06
6.09936e-06
6.09918e-06
6.09902e-06
6.09888e-06
6.0988e-06
6.09876e-06
6.09878e-06
6.09884e-06
6.09895e-06
6.0991e-06
6.09929e-06
6.09952e-06
6.09979e-06
6.10008e-06
6.10038e-06
6.10069e-06
6.10098e-06
6.10125e-06
6.1015e-06
6.10172e-06
6.1019e-06
6.10204e-06
6.10214e-06
6.10218e-06
6.1022e-06
6.10227e-06
6.10241e-06
6.1026e-06
6.10358e-06
6.10356e-06
6.10207e-06
6.10157e-06
6.10113e-06
6.10093e-06
6.10081e-06
6.10079e-06
6.10088e-06
6.10099e-06
6.10112e-06
6.10125e-06
6.10138e-06
6.10148e-06
6.10158e-06
6.10167e-06
6.10174e-06
6.10181e-06
6.10188e-06
6.10194e-06
6.10201e-06
6.10209e-06
6.10218e-06
6.1023e-06
6.10245e-06
6.10264e-06
6.1029e-06
6.10327e-06
6.10376e-06
6.1044e-06
6.10521e-06
6.10609e-06
6.1076e-06
6.10748e-06
6.11462e-06
6.09736e-06
6.15206e-06
6.07701e-06
5.87488e-06
8.49118e-06
1.68144e-06
6.10254e-06
6.10244e-06
6.10164e-06
6.10041e-06
6.10049e-06
6.10053e-06
6.10027e-06
6.09985e-06
6.09948e-06
6.0992e-06
6.09902e-06
6.09885e-06
6.09872e-06
6.09864e-06
6.09861e-06
6.09863e-06
6.09869e-06
6.09879e-06
6.09893e-06
6.09911e-06
6.09932e-06
6.09957e-06
6.09986e-06
6.10016e-06
6.10047e-06
6.10076e-06
6.10104e-06
6.10129e-06
6.10153e-06
6.10174e-06
6.10192e-06
6.10205e-06
6.10214e-06
6.10218e-06
6.10222e-06
6.1023e-06
6.10245e-06
6.1033e-06
6.10327e-06
6.10183e-06
6.10134e-06
6.10091e-06
6.10078e-06
6.10073e-06
6.10076e-06
6.10087e-06
6.10101e-06
6.10115e-06
6.1013e-06
6.10143e-06
6.10155e-06
6.10166e-06
6.10176e-06
6.10185e-06
6.10193e-06
6.102e-06
6.10207e-06
6.10214e-06
6.10222e-06
6.10231e-06
6.10242e-06
6.10255e-06
6.10271e-06
6.10293e-06
6.10324e-06
6.10366e-06
6.1042e-06
6.1049e-06
6.10569e-06
6.10688e-06
6.10755e-06
6.11044e-06
6.11004e-06
6.10391e-06
6.19489e-06
5.73235e-06
7.57513e-06
4.59411e-06
6.10228e-06
6.10225e-06
6.10152e-06
6.10035e-06
6.10035e-06
6.10035e-06
6.10009e-06
6.09968e-06
6.09933e-06
6.09906e-06
6.09885e-06
6.09869e-06
6.09857e-06
6.0985e-06
6.09848e-06
6.0985e-06
6.09855e-06
6.09865e-06
6.09877e-06
6.09894e-06
6.09913e-06
6.09937e-06
6.09964e-06
6.09993e-06
6.10023e-06
6.10052e-06
6.1008e-06
6.10106e-06
6.10132e-06
6.10155e-06
6.10175e-06
6.10193e-06
6.10206e-06
6.10215e-06
6.10216e-06
6.1022e-06
6.10231e-06
6.10304e-06
6.10303e-06
6.1016e-06
6.10114e-06
6.10074e-06
6.10068e-06
6.10068e-06
6.10074e-06
6.10088e-06
6.10103e-06
6.10119e-06
6.10134e-06
6.10149e-06
6.10162e-06
6.10174e-06
6.10185e-06
6.10195e-06
6.10204e-06
6.10211e-06
6.10219e-06
6.10227e-06
6.10235e-06
6.10243e-06
6.10253e-06
6.10266e-06
6.1028e-06
6.10299e-06
6.10326e-06
6.10362e-06
6.10409e-06
6.10469e-06
6.10542e-06
6.10633e-06
6.10746e-06
6.10811e-06
6.11391e-06
6.09439e-06
6.18547e-06
5.89182e-06
6.61549e-06
6.14745e-06
6.10202e-06
6.10205e-06
6.10139e-06
6.10027e-06
6.10021e-06
6.10018e-06
6.09991e-06
6.09951e-06
6.09917e-06
6.09891e-06
6.0987e-06
6.09853e-06
6.09843e-06
6.09837e-06
6.09835e-06
6.09837e-06
6.09842e-06
6.0985e-06
6.09861e-06
6.09876e-06
6.09894e-06
6.09916e-06
6.09942e-06
6.0997e-06
6.1e-06
6.10028e-06
6.10056e-06
6.10084e-06
6.10111e-06
6.10136e-06
6.10159e-06
6.10179e-06
6.10196e-06
6.10209e-06
6.10215e-06
6.10218e-06
6.10224e-06
6.10285e-06
6.10284e-06
6.10138e-06
6.10096e-06
6.10061e-06
6.1006e-06
6.10065e-06
6.10073e-06
6.10089e-06
6.10106e-06
6.10122e-06
6.1014e-06
6.10155e-06
6.1017e-06
6.10183e-06
6.10195e-06
6.10205e-06
6.10215e-06
6.10224e-06
6.10232e-06
6.1024e-06
6.10249e-06
6.10258e-06
6.10267e-06
6.10279e-06
6.10292e-06
6.10309e-06
6.10332e-06
6.10363e-06
6.10404e-06
6.10457e-06
6.10523e-06
6.10598e-06
6.10716e-06
6.10736e-06
6.11264e-06
6.10031e-06
6.14609e-06
6.04427e-06
6.17104e-06
6.41476e-06
6.10178e-06
6.10185e-06
6.10125e-06
6.10019e-06
6.10007e-06
6.1e-06
6.09972e-06
6.09933e-06
6.099e-06
6.09875e-06
6.09854e-06
6.09839e-06
6.09829e-06
6.09824e-06
6.09822e-06
6.09823e-06
6.09828e-06
6.09835e-06
6.09845e-06
6.09859e-06
6.09875e-06
6.09896e-06
6.09921e-06
6.09948e-06
6.09976e-06
6.10004e-06
6.10032e-06
6.1006e-06
6.10088e-06
6.10114e-06
6.10139e-06
6.10162e-06
6.10182e-06
6.10198e-06
6.1021e-06
6.10214e-06
6.10217e-06
6.10268e-06
6.10269e-06
6.10119e-06
6.10081e-06
6.10051e-06
6.10055e-06
6.10062e-06
6.10072e-06
6.1009e-06
6.10108e-06
6.10126e-06
6.10145e-06
6.10161e-06
6.10177e-06
6.10191e-06
6.10204e-06
6.10215e-06
6.10226e-06
6.10236e-06
6.10245e-06
6.10254e-06
6.10263e-06
6.10272e-06
6.10282e-06
6.10293e-06
6.10305e-06
6.1032e-06
6.10341e-06
6.10368e-06
6.10404e-06
6.1045e-06
6.10509e-06
6.10576e-06
6.10678e-06
6.10727e-06
6.11034e-06
6.10685e-06
6.11945e-06
6.11383e-06
6.06171e-06
6.28482e-06
6.10155e-06
6.10164e-06
6.1011e-06
6.1001e-06
6.09992e-06
6.09982e-06
6.09953e-06
6.09915e-06
6.09883e-06
6.09858e-06
6.09838e-06
6.09824e-06
6.09815e-06
6.0981e-06
6.09808e-06
6.0981e-06
6.09813e-06
6.0982e-06
6.09829e-06
6.09841e-06
6.09857e-06
6.09876e-06
6.099e-06
6.09926e-06
6.09953e-06
6.0998e-06
6.10008e-06
6.10036e-06
6.10064e-06
6.10091e-06
6.10118e-06
6.10142e-06
6.10165e-06
6.10184e-06
6.10199e-06
6.10208e-06
6.10211e-06
6.10252e-06
6.10256e-06
6.10101e-06
6.10068e-06
6.10042e-06
6.1005e-06
6.10059e-06
6.10072e-06
6.10091e-06
6.10111e-06
6.1013e-06
6.1015e-06
6.10168e-06
6.10184e-06
6.10199e-06
6.10213e-06
6.10226e-06
6.10237e-06
6.10248e-06
6.10258e-06
6.10268e-06
6.10278e-06
6.10287e-06
6.10297e-06
6.10308e-06
6.1032e-06
6.10334e-06
6.10352e-06
6.10377e-06
6.10408e-06
6.10449e-06
6.10501e-06
6.10563e-06
6.10646e-06
6.10725e-06
6.10876e-06
6.10983e-06
6.1095e-06
6.12726e-06
6.07396e-06
6.16468e-06
6.10133e-06
6.10144e-06
6.10095e-06
6.09999e-06
6.09977e-06
6.09964e-06
6.09934e-06
6.09896e-06
6.09865e-06
6.09841e-06
6.09822e-06
6.09809e-06
6.098e-06
6.09795e-06
6.09794e-06
6.09795e-06
6.09798e-06
6.09804e-06
6.09812e-06
6.09824e-06
6.09838e-06
6.09857e-06
6.09879e-06
6.09904e-06
6.0993e-06
6.09956e-06
6.09983e-06
6.1001e-06
6.10038e-06
6.10067e-06
6.10094e-06
6.10121e-06
6.10146e-06
6.10168e-06
6.10186e-06
6.10199e-06
6.10201e-06
6.10233e-06
6.10242e-06
6.10084e-06
6.10055e-06
6.10034e-06
6.10045e-06
6.10056e-06
6.10071e-06
6.10092e-06
6.10113e-06
6.10134e-06
6.10155e-06
6.10174e-06
6.10191e-06
6.10207e-06
6.10222e-06
6.10236e-06
6.10249e-06
6.1026e-06
6.10271e-06
6.10282e-06
6.10293e-06
6.10303e-06
6.10313e-06
6.10325e-06
6.10336e-06
6.1035e-06
6.10366e-06
6.10388e-06
6.10416e-06
6.10452e-06
6.10498e-06
6.10555e-06
6.10625e-06
6.10713e-06
6.10802e-06
6.11017e-06
6.10824e-06
6.12153e-06
6.10049e-06
6.11761e-06
6.10112e-06
6.10124e-06
6.10078e-06
6.09988e-06
6.09962e-06
6.09945e-06
6.09915e-06
6.09877e-06
6.09846e-06
6.09823e-06
6.09805e-06
6.09792e-06
6.09784e-06
6.0978e-06
6.09778e-06
6.09779e-06
6.09782e-06
6.09788e-06
6.09796e-06
6.09807e-06
6.0982e-06
6.09837e-06
6.09858e-06
6.09882e-06
6.09906e-06
6.09932e-06
6.09958e-06
6.09985e-06
6.10013e-06
6.10042e-06
6.10071e-06
6.10099e-06
6.10125e-06
6.1015e-06
6.1017e-06
6.10188e-06
6.1019e-06
6.10213e-06
6.10226e-06
6.10069e-06
6.10043e-06
6.10026e-06
6.1004e-06
6.10054e-06
6.10071e-06
6.10094e-06
6.10116e-06
6.10138e-06
6.1016e-06
6.1018e-06
6.10198e-06
6.10216e-06
6.10231e-06
6.10246e-06
6.1026e-06
6.10272e-06
6.10285e-06
6.10296e-06
6.10308e-06
6.10319e-06
6.1033e-06
6.10342e-06
6.10354e-06
6.10367e-06
6.10383e-06
6.10402e-06
6.10428e-06
6.1046e-06
6.10501e-06
6.10552e-06
6.10614e-06
6.10697e-06
6.10774e-06
6.10956e-06
6.10918e-06
6.11512e-06
6.11322e-06
6.11081e-06
6.10092e-06
6.10103e-06
6.10061e-06
6.09975e-06
6.09946e-06
6.09926e-06
6.09894e-06
6.09857e-06
6.09827e-06
6.09805e-06
6.09787e-06
6.09775e-06
6.09767e-06
6.09763e-06
6.09762e-06
6.09763e-06
6.09766e-06
6.09772e-06
6.09779e-06
6.09789e-06
6.09801e-06
6.09817e-06
6.09837e-06
6.09859e-06
6.09883e-06
6.09907e-06
6.09932e-06
6.09959e-06
6.09987e-06
6.10016e-06
6.10045e-06
6.10074e-06
6.10102e-06
6.10129e-06
6.10152e-06
6.10173e-06
6.10181e-06
6.10197e-06
6.10213e-06
6.10054e-06
6.10032e-06
6.10019e-06
6.10036e-06
6.10052e-06
6.10071e-06
6.10095e-06
6.10119e-06
6.10142e-06
6.10165e-06
6.10186e-06
6.10205e-06
6.10224e-06
6.1024e-06
6.10256e-06
6.10271e-06
6.10284e-06
6.10297e-06
6.1031e-06
6.10322e-06
6.10334e-06
6.10346e-06
6.10358e-06
6.10371e-06
6.10384e-06
6.10399e-06
6.10418e-06
6.10441e-06
6.10471e-06
6.10508e-06
6.10554e-06
6.1061e-06
6.10684e-06
6.10762e-06
6.10895e-06
6.10978e-06
6.11208e-06
6.11531e-06
6.11431e-06
6.10072e-06
6.10083e-06
6.10044e-06
6.09961e-06
6.09929e-06
6.09906e-06
6.09873e-06
6.09836e-06
6.09807e-06
6.09785e-06
6.09768e-06
6.09757e-06
6.0975e-06
6.09746e-06
6.09745e-06
6.09746e-06
6.09749e-06
6.09754e-06
6.09761e-06
6.0977e-06
6.09782e-06
6.09797e-06
6.09815e-06
6.09836e-06
6.09859e-06
6.09882e-06
6.09906e-06
6.09932e-06
6.0996e-06
6.09988e-06
6.10018e-06
6.10048e-06
6.10077e-06
6.10105e-06
6.10131e-06
6.10154e-06
6.10169e-06
6.1018e-06
6.102e-06
6.10039e-06
6.10021e-06
6.10012e-06
6.10031e-06
6.10049e-06
6.1007e-06
6.10096e-06
6.10121e-06
6.10145e-06
6.1017e-06
6.10191e-06
6.10212e-06
6.10231e-06
6.10249e-06
6.10266e-06
6.10281e-06
6.10296e-06
6.1031e-06
6.10324e-06
6.10337e-06
6.1035e-06
6.10363e-06
6.10376e-06
6.10389e-06
6.10402e-06
6.10417e-06
6.10435e-06
6.10456e-06
6.10483e-06
6.10517e-06
6.10559e-06
6.10611e-06
6.10677e-06
6.10754e-06
6.10859e-06
6.10979e-06
6.11122e-06
6.11391e-06
6.11668e-06
6.10054e-06
6.10064e-06
6.10026e-06
6.09947e-06
6.09911e-06
6.09886e-06
6.09852e-06
6.09815e-06
6.09786e-06
6.09765e-06
6.09749e-06
6.09738e-06
6.09731e-06
6.09728e-06
6.09727e-06
6.09728e-06
6.09731e-06
6.09736e-06
6.09742e-06
6.09751e-06
6.09762e-06
6.09775e-06
6.09793e-06
6.09813e-06
6.09834e-06
6.09856e-06
6.09879e-06
6.09905e-06
6.09931e-06
6.0996e-06
6.0999e-06
6.1002e-06
6.1005e-06
6.1008e-06
6.10108e-06
6.10133e-06
6.10154e-06
6.10159e-06
6.10184e-06
6.10024e-06
6.1001e-06
6.10005e-06
6.10026e-06
6.10046e-06
6.10069e-06
6.10097e-06
6.10123e-06
6.10149e-06
6.10174e-06
6.10197e-06
6.10219e-06
6.10239e-06
6.10258e-06
6.10275e-06
6.10292e-06
6.10308e-06
6.10323e-06
6.10337e-06
6.10352e-06
6.10366e-06
6.10379e-06
6.10393e-06
6.10407e-06
6.1042e-06
6.10435e-06
6.10452e-06
6.10473e-06
6.10498e-06
6.10529e-06
6.10567e-06
6.10615e-06
6.10675e-06
6.10748e-06
6.1084e-06
6.10955e-06
6.11106e-06
6.11248e-06
6.11679e-06
6.10036e-06
6.10044e-06
6.10007e-06
6.09931e-06
6.09893e-06
6.09864e-06
6.0983e-06
6.09793e-06
6.09764e-06
6.09744e-06
6.09728e-06
6.09718e-06
6.09712e-06
6.09708e-06
6.09708e-06
6.09709e-06
6.09712e-06
6.09716e-06
6.09722e-06
6.0973e-06
6.0974e-06
6.09753e-06
6.09769e-06
6.09788e-06
6.09808e-06
6.09829e-06
6.09852e-06
6.09876e-06
6.09902e-06
6.0993e-06
6.0996e-06
6.0999e-06
6.10021e-06
6.10052e-06
6.10082e-06
6.10109e-06
6.10135e-06
6.10141e-06
6.10171e-06
6.1001e-06
6.09999e-06
6.09997e-06
6.10021e-06
6.10044e-06
6.10068e-06
6.10097e-06
6.10125e-06
6.10152e-06
6.10178e-06
6.10202e-06
6.10225e-06
6.10246e-06
6.10266e-06
6.10284e-06
6.10302e-06
6.10319e-06
6.10335e-06
6.10351e-06
6.10366e-06
6.10381e-06
6.10396e-06
6.10411e-06
6.10425e-06
6.10439e-06
6.10454e-06
6.10471e-06
6.10491e-06
6.10514e-06
6.10543e-06
6.10579e-06
6.10623e-06
6.10678e-06
6.10745e-06
6.10831e-06
6.10931e-06
6.11094e-06
6.11173e-06
6.116e-06
6.10018e-06
6.10024e-06
6.09988e-06
6.09914e-06
6.09873e-06
6.09842e-06
6.09807e-06
6.0977e-06
6.09742e-06
6.09722e-06
6.09706e-06
6.09696e-06
6.09691e-06
6.09688e-06
6.09687e-06
6.09688e-06
6.09691e-06
6.09695e-06
6.09701e-06
6.09708e-06
6.09718e-06
6.0973e-06
6.09745e-06
6.09762e-06
6.09781e-06
6.09801e-06
6.09823e-06
6.09846e-06
6.09871e-06
6.09899e-06
6.09928e-06
6.09959e-06
6.0999e-06
6.10022e-06
6.10054e-06
6.10083e-06
6.10111e-06
6.10123e-06
6.10159e-06
6.09996e-06
6.09988e-06
6.0999e-06
6.10016e-06
6.1004e-06
6.10067e-06
6.10097e-06
6.10126e-06
6.10155e-06
6.10182e-06
6.10207e-06
6.10231e-06
6.10253e-06
6.10274e-06
6.10293e-06
6.10312e-06
6.1033e-06
6.10347e-06
6.10364e-06
6.10381e-06
6.10396e-06
6.10412e-06
6.10428e-06
6.10443e-06
6.10458e-06
6.10473e-06
6.1049e-06
6.10509e-06
6.10532e-06
6.10559e-06
6.10593e-06
6.10633e-06
6.10684e-06
6.10746e-06
6.10827e-06
6.10915e-06
6.11075e-06
6.11136e-06
6.11521e-06
6.1e-06
6.10005e-06
6.09969e-06
6.09896e-06
6.09853e-06
6.0982e-06
6.09783e-06
6.09746e-06
6.09718e-06
6.09698e-06
6.09684e-06
6.09674e-06
6.09668e-06
6.09666e-06
6.09665e-06
6.09666e-06
6.09669e-06
6.09673e-06
6.09678e-06
6.09685e-06
6.09693e-06
6.09704e-06
6.09718e-06
6.09735e-06
6.09753e-06
6.09771e-06
6.09792e-06
6.09814e-06
6.09839e-06
6.09865e-06