/*--------------------------------*- C++ -*----------------------------------*\
| =========                 |                                                 |
| \\      /  F ield         | OpenFOAM: The Open Source CFD Toolbox           |
|  \\    /   O peration     | Version:  2312                                  |
|   \\  /    A nd           | Website:  www.openfoam.com                      |
|    \\/     M anipulation  |                                                 |
\*---------------------------------------------------------------------------*/
FoamFile
{
    version     2.0;
    format      ascii;
    arch        "LSB;label=32;scalar=64";
    class       volScalarField;
    location    "450";
    object      turbulenceProperties:k;
}
// * * * * * * * * * * * * * * * * * * * * * * * * * * * * * * * * * * * * * //

dimensions      [0 2 -2 0 0 0 0];

internalField   nonuniform List<scalar> 
10720
(
0.0199781
0.0232532
0.0274179
0.0330499
0.0396728
0.0480532
0.0587086
0.0718506
0.0885051
0.109757
0.137256
0.17364
0.222542
0.289909
0.385877
0.526365
0.742767
1.07626
1.66178
2.57326
4.62757
7.73412
18.1064
35.342
39.1636
37.4701
36.8233
37.4985
38.3337
38.5449
38.0333
36.8971
35.0618
32.5515
29.3102
25.414
20.1266
14.8748
3.46752
0.0170386
0.0146483
0.011955
0.00963849
0.00744357
0.00545905
0.00385212
0.00288488
0.00301492
0.00406984
0.00603132
0.0090331
0.0133979
0.0196371
0.028419
0.0408173
0.0586627
0.0853447
0.12707
0.195059
0.311628
0.517849
0.91126
1.66856
3.31962
6.78862
15.1733
31.2659
44.3054
49.9011
51.4883
51.748
51.4499
50.7221
49.6017
48.1504
46.0271
43.5545
35.6738
0.00310761
0.00309043
0.0030551
0.00296698
0.00283057
0.00267373
0.0024886
0.00228038
0.00207426
0.0018721
0.00167936
0.00154523
0.00152589
0.00167373
0.00216393
0.00336959
0.00632326
0.0130707
0.0313905
0.0767722
0.227053
0.627119
1.92717
6.17272
12.0705
18.1645
23.9107
27.9837
28.7958
26.4221
22.5183
18.5653
15.3592
12.9023
11.015
9.51808
8.47188
7.38122
7.92653
0.00307933
0.0030375
0.00295211
0.00282555
0.00265253
0.00242442
0.00215683
0.00189734
0.00165748
0.00141947
0.001193
0.000996944
0.000831307
0.000690806
0.000571731
0.000471398
0.00038628
0.000314249
0.000251124
0.000193457
0.000136416
8.06514e-05
2.79568e-05
4.55981e-06
1.16258e-05
0.00159576
0.00854133
0.0688312
0.231451
0.451777
0.673434
0.867776
1.03115
1.1749
1.30944
1.44803
1.59466
1.9219
2.67273
0.00208395
0.00206749
0.00202087
0.0019496
0.00187506
0.00179316
0.00171036
0.0016359
0.00157187
0.0015222
0.00148378
0.00146171
0.00145575
0.00146823
0.00147365
0.00142574
0.00121869
0.00116135
0.000133743
0.00638638
1.37066e-09
0.00145142
3.22901e-05
0.0167397
0.183971
0.65263
1.65587
3.71416
7.33513
12.1184
16.437
18.5573
18.1398
16.2869
14.1305
12.1061
10.52
8.70945
9.78637
0.00210019
0.00209761
0.00209204
0.00205481
0.00198873
0.00187779
0.00172483
0.00155016
0.00138783
0.00122084
0.00104116
0.00086717
0.000711458
0.000577374
0.000466676
0.000377302
0.000307653
0.000254829
0.00021641
0.000188813
0.0001698
0.000157462
0.000150685
0.000146971
0.000146801
0.00014586
0.000155152
9.22759e-05
0.000635768
0.00417638
0.0118343
0.0247096
0.0551205
0.115004
0.203577
0.312083
0.430027
0.514709
0.878595
0.00175895
0.00176259
0.00175373
0.00173914
0.00170901
0.00166416
0.00160825
0.00153845
0.00145868
0.00137044
0.00127564
0.00117557
0.00107122
0.000964477
0.000856323
0.000742394
0.000628636
0.000534986
0.000394833
0.000231158
2.96801e-05
0.000144003
1.13514e-05
0.00425238
0.0217695
0.000309882
0.00392702
0.00580906
0.0413986
0.367409
1.59428
4.33621
8.12625
11.2757
12.6326
12.4501
11.7086
10.248
11.0364
0.00174008
0.00171149
0.00166662
0.00161258
0.00154482
0.0014561
0.0013525
0.00124228
0.00112751
0.00100294
0.000874201
0.000753504
0.000646868
0.000554966
0.000477315
0.000412218
0.000358662
0.000315044
0.000280036
0.000251537
0.000228379
0.000208929
0.000191498
0.000173167
0.000154333
0.000138679
0.000126853
0.000118356
0.000108053
9.47686e-05
7.11719e-05
4.48224e-05
0.000344066
0.0005942
0.00215793
0.0115603
0.0379229
0.0958315
0.34898
0.0013196
0.00131727
0.00130698
0.00128864
0.00126026
0.00122178
0.00117527
0.00112144
0.00106205
0.00100073
0.000939448
0.000880675
0.000827032
0.000780149
0.000741154
0.000708432
0.00067383
0.000630617
0.000588311
0.000521814
0.00041864
0.000202301
2.41216e-05
4.91189e-06
0
1.55823e-05
0.000890007
0.00539195
0.0269351
0.0138909
0.0298649
0.0530766
0.333209
1.94827
5.00275
8.10728
10.0688
10.4367
11.617
0.00131619
0.00130687
0.00128834
0.00125865
0.0012168
0.00115751
0.00108656
0.00101038
0.000929161
0.000840005
0.000747257
0.000656502
0.00057127
0.000493042
0.00042287
0.000361198
0.000308178
0.000263574
0.000226869
0.000196944
0.000172786
0.000153088
0.000136452
0.000120584
0.00010446
8.95691e-05
7.77461e-05
6.95793e-05
6.59978e-05
6.09868e-05
7.45243e-05
1.75873e-05
0.000114491
0.000535024
0.00131303
0.00259159
0.000946254
0.00296575
0.0676333
0.00108163
0.00108624
0.00108581
0.00108193
0.0010713
0.00105408
0.00103101
0.00100118
0.000965219
0.000924084
0.000878137
0.000828461
0.00077623
0.000722371
0.000667838
0.000611318
0.000549707
0.000486487
0.000427546
0.000374595
0.000337916
0.000289598
0.000237457
6.3185e-05
1.09504e-05
4.95307e-06
1.12121e-06
0
0
0.00197489
0.00712703
0.0368784
0.00661883
0.0902094
0.197864
1.85429
5.17627
8.34384
11.0846
0.00107183
0.00105829
0.00103858
0.00101258
0.000979211
0.000935344
0.000884859
0.000830688
0.000771785
0.00070667
0.000638476
0.0005706
0.000505647
0.000445129
0.000390098
0.000341241
0.000298773
0.000262571
0.000232215
0.000206924
0.000185814
0.000167764
0.000151532
0.000135381
0.00011861
0.000102643
8.87155e-05
7.70601e-05
6.72855e-05
5.916e-05
5.21962e-05
4.58601e-05
3.63158e-05
2.33072e-05
1.61773e-08
4.66096e-07
0.000159936
0.000681878
0.00769059
0.000874972
0.000878815
0.000879428
0.000877203
0.000870215
0.000858116
0.000841195
0.000818954
0.000791589
0.000759855
0.000724294
0.000685798
0.000645552
0.000604702
0.000564202
0.000525405
0.000490234
0.000457475
0.000424042
0.000388902
0.000355269
0.000327907
0.00030841
0.000256983
0.000171703
8.76247e-05
1.68629e-05
5.4811e-06
3.05135e-06
2.76754e-07
0
0
0.000853968
0.0284708
0.0215452
0.127489
0.849769
4.25406
8.89247
0.000867788
0.000858058
0.000843905
0.000824415
0.000799132
0.00076669
0.000730234
0.000690496
0.000646735
0.000598749
0.000548313
0.00049733
0.000447348
0.000399431
0.000354475
0.000313196
0.000275994
0.000243108
0.000214539
0.00018995
0.000168866
0.000150585
0.000134203
0.00011846
0.000102697
8.77605e-05
7.46306e-05
6.358e-05
5.43808e-05
4.69126e-05
4.1326e-05
3.76922e-05
3.55876e-05
3.3146e-05
3.03147e-05
1.38571e-05
1.33828e-06
6.51136e-08
0.000228097
0.0007252
0.00073015
0.00073309
0.000734275
0.000732264
0.000726772
0.000718018
0.000705357
0.000688787
0.000668662
0.000644951
0.000618115
0.000588682
0.000557133
0.00052403
0.00049005
0.000454766
0.000417269
0.000379304
0.000343318
0.000311311
0.000286197
0.000268681
0.000256451
0.000232491
0.000193131
0.000145285
9.58107e-05
5.57068e-05
4.36718e-06
3.10448e-06
1.39152e-07
0
0
0.0031115
0.0538816
0.0988635
0.967137
5.32784
0.000717762
0.000708798
0.000696782
0.000680834
0.000660849
0.000636084
0.00060903
0.000579207
0.000546184
0.00051036
0.000472538
0.000433905
0.000395415
0.000357788
0.000321758
0.000288024
0.000257012
0.000229093
0.000204406
0.000182808
0.000163953
0.00014731
0.000132156
0.000117541
0.000102967
8.90608e-05
7.65858e-05
6.57558e-05
5.63438e-05
4.81402e-05
4.10869e-05
3.50489e-05
2.98847e-05
2.54755e-05
2.23962e-05
1.95862e-05
1.38941e-05
1.57141e-06
1.61121e-05
0.000604942
0.00060971
0.000613183
0.000615352
0.000615273
0.000612633
0.000607494
0.000599287
0.000587941
0.000573561
0.0005561
0.000535804
0.000513034
0.000488153
0.000461703
0.000434109
0.000406
0.000378469
0.000351616
0.000325413
0.000300243
0.000277257
0.000257364
0.000240316
0.000222253
0.000200106
0.000175538
0.000149862
0.000127184
9.27241e-05
6.1589e-05
2.79568e-06
1.6654e-06
0
0
0
0.0311114
0.133771
2.12014
0.000598408
0.000590844
0.00058107
0.000568089
0.000552261
0.000533152
0.000512555
0.00048974
0.000464513
0.000437392
0.000408759
0.000379289
0.000349554
0.000319994
0.000291123
0.000263468
0.000237444
0.000213395
0.000191537
0.000171903
0.000154343
0.000138523
0.000123936
0.000109945
9.62016e-05
8.31056e-05
7.12881e-05
6.09876e-05
5.20715e-05
4.43868e-05
3.78995e-05
3.26525e-05
2.86512e-05
2.58624e-05
2.4271e-05
2.44911e-05
2.62063e-05
2.77125e-05
1.05257e-06
0.000509984
0.000514657
0.000518554
0.00052157
0.000522973
0.00052261
0.000520431
0.000515952
0.000509101
0.000499872
0.000488114
0.000473943
0.000457526
0.000439046
0.000418795
0.000397066
0.000374311
0.000350489
0.000325766
0.000301207
0.000278091
0.00025737
0.000239258
0.000222319
0.000204135
0.000183485
0.000162068
0.000143436
0.000129175
0.000117521
0.000106365
7.77402e-05
3.31041e-05
2.88568e-06
0
0
0
0.0465832
0.546878
0.000504001
0.00049741
0.000489196
0.000478405
0.000465645
0.000450732
0.000434684
0.000416919
0.00039746
0.000376681
0.000354774
0.000332141
0.00030908
0.000285824
0.00026275
0.000240246
0.00021863
0.00019825
0.000179324
0.000161966
0.00014614
0.000131642
0.000118127
0.000105171
9.251e-05
8.04352e-05
6.9442e-05
5.97433e-05
5.12431e-05
4.3802e-05
3.7367e-05
3.19109e-05
2.73572e-05
2.37796e-05
2.1169e-05
2.06564e-05
2.03422e-05
3.41192e-05
1.42022e-05
0.00043299
0.000437365
0.000441288
0.0004446
0.000446723
0.000447598
0.000447079
0.00044483
0.000440704
0.000434675
0.000426557
0.000416379
0.000404203
0.000390104
0.000374293
0.000357003
0.000338495
0.000319189
0.000299521
0.000279884
0.000260904
0.000243075
0.000226597
0.000210619
0.000193332
0.000173783
0.000153293
0.000134727
0.000119908
0.000109261
0.000101513
9.69913e-05
8.51387e-05
4.96452e-05
3.28712e-06
0
0
0.00248278
0.139724
0.000427631
0.000421925
0.000415033
0.000406001
0.000395593
0.000383814
0.00037109
0.000357054
0.000341889
0.000325814
0.000308887
0.000291364
0.000273405
0.000255113
0.000236697
0.00021843
0.000200548
0.00018332
0.000166979
0.00015166
0.000137384
0.000124063
0.000111489
9.93931e-05
8.76204e-05
7.63917e-05
6.60901e-05
5.69209e-05
4.88433e-05
4.17657e-05
3.56597e-05
3.05342e-05
2.63869e-05
2.32759e-05
2.1149e-05
2.08836e-05
2.07862e-05
2.94767e-05
3.68235e-05
0.000370105
0.000374181
0.00037801
0.000381418
0.000383978
0.000385642
0.000386287
0.000385603
0.00038348
0.000379861
0.000374562
0.000367566
0.000358865
0.00034848
0.00033651
0.000323094
0.000308434
0.000292832
0.000276398
0.000259494
0.000242869
0.000227086
0.000212278
0.000197808
0.000182313
0.000164957
0.000146599
0.000129353
0.000114768
0.000103099
9.36706e-05
8.76293e-05
8.47914e-05
8.16637e-05
5.34752e-05
2.64058e-06
0
0.000801119
0.0485818
0.000365309
0.00036031
0.000354473
0.000346864
0.000338285
0.000328839
0.000318613
0.000307398
0.000295457
0.000282879
0.000269692
0.000256043
0.000241995
0.000227554
0.000212862
0.000198081
0.000183352
0.000168895
0.00015489
0.000141497
0.000128787
0.000116734
0.000105209
9.40577e-05
8.32275e-05
7.28824e-05
6.33244e-05
5.47385e-05
4.7117e-05
4.03949e-05
3.45445e-05
2.95713e-05
2.54511e-05
2.22414e-05
1.99636e-05
1.93717e-05
1.95856e-05
2.51708e-05
4.021e-05
0.000318123
0.000321876
0.000325516
0.000328869
0.0003316
0.000333687
0.00033503
0.000335351
0.000334551
0.000332569
0.00032923
0.000324496
0.00031832
0.000310669
0.000301599
0.000291192
0.000279567
0.00026698
0.000253625
0.000239756
0.000225827
0.000212256
0.000199133
0.000186045
0.000172076
0.00015662
0.000140298
0.000124738
0.000111225
9.98886e-05
9.02267e-05
8.22234e-05
7.66956e-05
7.46006e-05
7.84523e-05
4.03634e-05
5.81151e-08
0.000258727
0.0161308
0.000313856
0.000309465
0.000304476
0.000298042
0.000290913
0.00028323
0.000274917
0.000265865
0.000256368
0.000246445
0.000236086
0.00022537
0.00021432
0.000202906
0.000191169
0.000179211
0.00016712
0.000155046
0.000143128
0.000131501
0.000120252
0.000109396
9.88831e-05
8.86492e-05
7.86943e-05
6.91651e-05
6.02972e-05
5.22599e-05
4.50737e-05
3.87019e-05
3.31321e-05
2.83839e-05
2.44575e-05
2.14107e-05
1.92663e-05
1.86335e-05
1.88979e-05
2.31758e-05
3.69537e-05
0.000274802
0.000278228
0.00028164
0.000284861
0.000287626
0.000289945
0.000291706
0.000292679
0.000292792
0.000291965
0.000290059
0.000287006
0.000282762
0.000277277
0.000270552
0.000262623
0.000253552
0.000243537
0.000232707
0.000221211
0.00020939
0.00019766
0.000186103
0.000174428
0.000161977
0.000148293
0.000133834
0.000119881
0.000107549
9.7017e-05
8.79211e-05
7.99922e-05
7.33675e-05
6.85045e-05
6.75483e-05
8.14882e-05
8.52551e-08
2.67269e-05
0.00404521
0.000270988
0.000267134
0.000262826
0.000257361
0.000251399
0.000245065
0.000238226
0.000230875
0.000223247
0.000215343
0.000207136
0.000198677
0.000189946
0.000180883
0.000171506
0.000161844
0.000151935
0.000141887
0.0001318
0.000121776
0.000111892
0.000102197
9.26872e-05
8.33675e-05
7.42758e-05
6.55385e-05
5.73542e-05
4.98709e-05
4.31275e-05
3.7111e-05
3.18187e-05
2.72746e-05
2.34788e-05
2.04882e-05
1.83359e-05
1.75961e-05
1.77527e-05
2.14576e-05
3.32419e-05
0.000238405
0.000241511
0.000244682
0.000247714
0.000250421
0.00025283
0.000254808
0.000256183
0.000256895
0.000256862
0.000255968
0.000254151
0.000251343
0.000247488
0.000242557
0.000236567
0.000229554
0.000221626
0.000212926
0.000203554
0.000193689
0.000183692
0.000173636
0.000163318
0.000152288
0.000140211
0.000127419
0.000114914
0.000103661
9.3917e-05
8.5444e-05
7.80733e-05
7.16205e-05
6.68081e-05
6.01785e-05
7.49957e-05
3.80104e-05
3.58983e-07
0.000266882
0.000234988
0.000231597
0.00022786
0.000223188
0.000218171
0.000212887
0.000207214
0.000201195
0.000195019
0.000188671
0.000182123
0.000175393
0.000168453
0.000161236
0.000153721
0.000145915
0.000137817
0.000129479
0.000120971
0.000112369
0.000103748
9.51611e-05
8.6626e-05
7.81745e-05
6.98903e-05
6.19031e-05
5.43716e-05
4.74249e-05
4.1115e-05
3.54481e-05
3.04323e-05
2.60989e-05
2.24574e-05
1.95682e-05
1.74633e-05
1.66631e-05
1.6722e-05
1.9852e-05
2.99832e-05
0.000207607
0.000210422
0.000213343
0.000216167
0.00021877
0.000221168
0.000223245
0.000224858
0.000225958
0.000226471
0.000226292
0.000225361
0.000223622
0.000221005
0.000217491
0.000213054
0.00020771
0.000201509
0.000194588
0.000186981
0.000178789
0.000170306
0.000161618
0.000152589
0.000142894
0.000132295
0.000121031
0.000109881
9.9655e-05
9.06574e-05
8.27564e-05
7.58795e-05
6.98229e-05
6.53537e-05
5.95413e-05
6.03964e-05
7.23241e-05
1.55417e-07
1.829e-05
0.000204555
0.000201551
0.000198299
0.000194282
0.000190038
0.000185585
0.000180838
0.000175872
0.000170829
0.00016569
0.000160423
0.000155041
0.000149499
0.000143723
0.000137689
0.000131368
0.000124748
0.000117846
0.000110699
0.000103359
9.58807e-05
8.83172e-05
8.07016e-05
7.30954e-05
6.55932e-05
5.83217e-05
5.14154e-05
4.49913e-05
3.91086e-05
3.37882e-05
2.90471e-05
2.49215e-05
2.14256e-05
1.86199e-05
1.65394e-05
1.56625e-05
1.56314e-05
1.82548e-05
2.70296e-05
0.000181386
0.000183939
0.000186608
0.000189225
0.000191689
0.000194016
0.000196109
0.000197844
0.000199172
0.00020004
0.000200353
0.00020006
0.000199114
0.000197444
0.000195014
0.000191793
0.000187776
0.000182984
0.000177523
0.000171411
0.000164686
0.00015756
0.000150125
0.000142299
0.000133847
0.000124593
0.000114719
0.000104824
9.55818e-05
8.73108e-05
7.99657e-05
7.35111e-05
6.78703e-05
6.33131e-05
5.97847e-05
5.27684e-05
7.89269e-05
4.17612e-07
3.93187e-10
0.000178668
0.000176003
0.00017315
0.000169683
0.000166071
0.000162287
0.000158285
0.000154159
0.00015001
0.000145816
0.000141552
0.000137212
0.000132756
0.000128117
0.000123253
0.000118133
0.000112719
0.000107016
0.00010103
9.47929e-05
8.83428e-05
8.1719e-05
7.49629e-05
6.81492e-05
6.13857e-05
5.47867e-05
4.84761e-05
4.25563e-05
3.70898e-05
3.21094e-05
2.76396e-05
2.37201e-05
2.03718e-05
1.76559e-05
1.56088e-05
1.46659e-05
1.45525e-05
1.67269e-05
2.42928e-05
0.000158946
0.000161253
0.000163683
0.000166099
0.0001684
0.000170629
0.000172678
0.000174451
0.000175909
0.000177004
0.000177653
0.00017782
0.000177447
0.000176478
0.000174875
0.000172603
0.000169647
0.000166001
0.000161739
0.000156874
0.000151408
0.000145467
0.000139161
0.000132441
0.000125131
0.0001171
0.000108488
9.97547e-05
9.14528e-05
8.3895e-05
7.71052e-05
7.10597e-05
6.58071e-05
6.12172e-05
5.86024e-05
5.13214e-05
6.70423e-05
2.55531e-05
5.13783e-07
0.00015652
0.000154153
0.00015164
0.000148634
0.000145544
0.000142303
0.000138908
0.000135454
0.000132014
0.000128564
0.000125085
0.000121566
0.000117964
0.000114215
0.000110281
0.00010612
0.00010169
9.6978e-05
9.19756e-05
8.66914e-05
8.11524e-05
7.53904e-05
6.94386e-05
6.33645e-05
5.72819e-05
5.1317e-05
4.55728e-05
4.0138e-05
3.50761e-05
3.04281e-05
2.6225e-05
2.25085e-05
1.93055e-05
1.66764e-05
1.46593e-05
1.36526e-05
1.34629e-05
1.52637e-05
2.17549e-05
0.000139647
0.000141725
0.00014394
0.000146152
0.000148295
0.000150397
0.000152373
0.000154128
0.000155642
0.000156867
0.000157735
0.000158209
0.00015825
0.000157798
0.000156828
0.000155293
0.000153173
0.000150455
0.000147172
0.000143342
0.000138944
0.000134037
0.00012874
0.000123026
0.000116755
0.000109829
0.000102355
9.4688e-05
8.72772e-05
8.0415e-05
7.41738e-05
6.85505e-05
6.36349e-05
5.92583e-05
5.64461e-05
5.16626e-05
5.48652e-05
5.15539e-05
6.13615e-06
0.000137479
0.000135372
0.000133152
0.000130537
0.000127873
0.000125084
0.000122185
0.000119275
0.000116401
0.000113545
0.000110686
0.00010781
0.000104879
0.000101834
9.86364e-05
9.52456e-05
9.16147e-05
8.772e-05
8.35445e-05
7.90851e-05
7.43459e-05
6.93478e-05
6.41213e-05
5.87378e-05
5.33038e-05
4.79329e-05
4.27202e-05
3.7746e-05
3.30732e-05
2.87474e-05
2.48045e-05
2.12872e-05
1.82281e-05
1.56856e-05
1.37e-05
1.26364e-05
1.23768e-05
1.38646e-05
1.9409e-05
0.000122976
0.000124848
0.00012686
0.000128883
0.000130864
0.000132834
0.000134708
0.000136415
0.000137932
0.000139219
0.000140219
0.000140905
0.000141238
0.000141173
0.000140675
0.000139707
0.000138242
0.000136261
0.000133766
0.000130789
0.000127294
0.000123287
0.000118878
0.000114062
0.000108726
0.000102793
9.63434e-05
8.96501e-05
8.30748e-05
7.68836e-05
7.1177e-05
6.59822e-05
6.13724e-05
5.73234e-05
5.41374e-05
5.13098e-05
4.84549e-05
5.5351e-05
2.60257e-05
0.000121037
0.000119157
0.000117192
0.000114912
0.000112596
0.000110186
0.000107698
0.000105227
0.000102809
0.000100427
9.80599e-05
9.56944e-05
9.32936e-05
9.08074e-05
8.81971e-05
8.54224e-05
8.24401e-05
7.92202e-05
7.57353e-05
7.1974e-05
6.79343e-05
6.36217e-05
5.9055e-05
5.4301e-05
4.94622e-05
4.46415e-05
3.99268e-05
3.53897e-05
3.10904e-05
2.70763e-05
2.33869e-05
2.00646e-05
1.7147e-05
1.46897e-05
1.27356e-05
1.16202e-05
1.12968e-05
1.25327e-05
1.72596e-05
0.000108519
0.000110207
0.00011203
0.000113876
0.000115699
0.000117533
0.000119294
0.000120928
0.000122414
0.000123716
0.00012479
0.000125609
0.000126142
0.000126349
0.000126201
0.000125664
0.000124706
0.000123307
0.000121456
0.000119184
0.000116443
0.000113209
0.000109578
0.000105556
0.000101055
9.60076e-05
9.04741e-05
8.46637e-05
7.88659e-05
7.3316e-05
6.81277e-05
6.33558e-05
5.90474e-05
5.5304e-05
5.19897e-05
4.98784e-05
4.59187e-05
4.98313e-05
4.04767e-05
0.000106785
0.000105105
0.000103363
0.000101368
9.93435e-05
9.72479e-05
9.51031e-05
9.29944e-05
9.09469e-05
8.89453e-05
8.69694e-05
8.50073e-05
8.30287e-05
8.09857e-05
7.88445e-05
7.65651e-05
7.41066e-05
7.14399e-05
6.85339e-05
6.53672e-05
6.19269e-05
5.82159e-05
5.42449e-05
5.00652e-05
4.57677e-05
4.14547e-05
3.72054e-05
3.30811e-05
2.91376e-05
2.5423e-05
2.19783e-05
1.88458e-05
1.60667e-05
1.3693e-05
1.17712e-05
1.06105e-05
1.02294e-05
1.12641e-05
1.52929e-05
9.59378e-05
9.74584e-05
9.91122e-05
0.000100791
0.000102466
0.000104162
0.000105806
0.000107353
0.000108785
0.00011007
0.00011117
0.000112065
0.000112729
0.000113127
0.000113237
0.000113022
0.000112457
0.00011152
0.000110186
0.000108483
0.000106361
0.000103786
0.000100829
9.75025e-05
9.37407e-05
8.94802e-05
8.4763e-05
7.97497e-05
7.46701e-05
6.97267e-05
6.50387e-05
6.06769e-05
5.6679e-05
5.31873e-05
4.99696e-05
4.78592e-05
4.46002e-05
4.42696e-05
4.37686e-05
9.43886e-05
9.28825e-05
9.13351e-05
8.95843e-05
8.78079e-05
8.59789e-05
8.41212e-05
8.23097e-05
8.05638e-05
7.88682e-05
7.72099e-05
7.5573e-05
7.39292e-05
7.22382e-05
7.04697e-05
6.85898e-05
6.65575e-05
6.43428e-05
6.19152e-05
5.92499e-05
5.63289e-05
5.31426e-05
4.96959e-05
4.60317e-05
4.22327e-05
3.83887e-05
3.45696e-05
3.08311e-05
2.72237e-05
2.37946e-05
2.05855e-05
1.76377e-05
1.49934e-05
1.27017e-05
1.08126e-05
9.61249e-06
9.18153e-06
1.00606e-05
1.35027e-05
8.49558e-05
8.63263e-05
8.78228e-05
8.93482e-05
9.08841e-05
9.2445e-05
9.39735e-05
9.54239e-05
9.67873e-05
9.80327e-05
9.91296e-05
0.000100061
0.000100806
0.000101334
0.000101625
0.00010165
0.000101382
0.000100801
9.98787e-05
9.86313e-05
9.70204e-05
9.50044e-05
9.26246e-05
8.99033e-05
8.67883e-05
8.32202e-05
7.92254e-05
7.49275e-05
7.0506e-05
6.61326e-05
6.19225e-05
5.79547e-05
5.42694e-05
5.09984e-05
4.79708e-05
4.56957e-05
4.31748e-05
4.06326e-05
4.15975e-05
8.35713e-05
8.22208e-05
8.0843e-05
7.93008e-05
7.77361e-05
7.61346e-05
7.45165e-05
7.29528e-05
7.1455e-05
7.001e-05
6.8605e-05
6.72284e-05
6.58529e-05
6.44457e-05
6.29787e-05
6.1418e-05
5.97303e-05
5.78872e-05
5.58562e-05
5.36112e-05
5.11318e-05
4.84024e-05
4.54196e-05
4.2218e-05
3.88683e-05
3.54522e-05
3.20281e-05
2.86482e-05
2.53574e-05
2.22003e-05
1.92173e-05
1.6448e-05
1.39345e-05
1.17231e-05
9.86697e-06
8.63267e-06
8.15793e-06
8.92248e-06
1.18825e-05
7.53436e-05
7.65776e-05
7.79304e-05
7.93174e-05
8.07187e-05
8.2153e-05
8.35654e-05
8.49189e-05
8.62027e-05
8.73946e-05
8.84646e-05
8.94031e-05
9.01883e-05
9.07993e-05
9.12174e-05
9.14157e-05
9.13727e-05
9.10647e-05
9.04688e-05
8.95882e-05
8.83936e-05
8.68455e-05
8.4956e-05
8.27558e-05
8.02003e-05
7.72358e-05
7.38769e-05
7.02166e-05
6.63928e-05
6.25498e-05
5.87928e-05
5.52035e-05
5.18248e-05
4.87663e-05
4.59329e-05
4.35663e-05
4.13844e-05
3.82322e-05
3.8267e-05
7.41028e-05
7.28948e-05
7.16645e-05
7.03028e-05
6.89207e-05
6.75128e-05
6.60981e-05
6.47393e-05
6.3446e-05
6.22059e-05
6.10094e-05
5.98441e-05
5.86861e-05
5.75048e-05
5.62772e-05
5.49756e-05
5.35686e-05
5.20291e-05
5.03265e-05
4.84349e-05
4.63314e-05
4.39962e-05
4.142e-05
3.8628e-05
3.56808e-05
3.26496e-05
2.95902e-05
2.65425e-05
2.35481e-05
2.06484e-05
1.78812e-05
1.52836e-05
1.28976e-05
1.07652e-05
8.94182e-06
7.67772e-06
7.16558e-06
7.84852e-06
1.04191e-05
6.69081e-05
6.80189e-05
6.92409e-05
7.05015e-05
7.1778e-05
7.30924e-05
7.4393e-05
7.56482e-05
7.68507e-05
7.79781e-05
7.90083e-05
7.99317e-05
8.0731e-05
8.13895e-05
8.18891e-05
8.2211e-05
8.23326e-05
8.22331e-05
8.18916e-05
8.13006e-05
8.04449e-05
7.92798e-05
7.78013e-05
7.60433e-05
7.39716e-05
7.15325e-05
6.87306e-05
6.56347e-05
6.23507e-05
5.89949e-05
5.5664e-05
5.24349e-05
4.93526e-05
4.65082e-05
4.38499e-05
4.14912e-05
3.93774e-05
3.6267e-05
3.52288e-05
6.57957e-05
6.47142e-05
6.36138e-05
6.24091e-05
6.11853e-05
5.99425e-05
5.87018e-05
5.75164e-05
5.63931e-05
5.53225e-05
5.42955e-05
5.33002e-05
5.23162e-05
5.13197e-05
5.0288e-05
4.91952e-05
4.80156e-05
4.67246e-05
4.52943e-05
4.3697e-05
4.19106e-05
3.99132e-05
3.76918e-05
3.52624e-05
3.26767e-05
2.99937e-05
2.7265e-05
2.4523e-05
2.18048e-05
1.91468e-05
1.65846e-05
1.41525e-05
1.18901e-05
9.83552e-06
8.0445e-06
6.75358e-06
6.20902e-06
6.84205e-06
9.10672e-06
5.94871e-05
6.04885e-05
6.15921e-05
6.27349e-05
6.38974e-05
6.50982e-05
6.62926e-05
6.74509e-05
6.85711e-05
6.96297e-05
7.06104e-05
7.15037e-05
7.2298e-05
7.29758e-05
7.35257e-05
7.39308e-05
7.41709e-05
7.42276e-05
7.4081e-05
7.37184e-05
7.31327e-05
7.22832e-05
7.11485e-05
6.97658e-05
6.8105e-05
6.6116e-05
6.37959e-05
6.11955e-05
5.8395e-05
5.54852e-05
5.25501e-05
4.96612e-05
4.68642e-05
4.42298e-05
4.1736e-05
3.94388e-05
3.73098e-05
3.43642e-05
3.26309e-05
5.84915e-05
5.75218e-05
5.65358e-05
5.54684e-05
5.43825e-05
5.32821e-05
5.21907e-05
5.1151e-05
5.01708e-05
4.92406e-05
4.83537e-05
4.74984e-05
4.66572e-05
4.58088e-05
4.49351e-05
4.40134e-05
4.30198e-05
4.19317e-05
4.07258e-05
3.93757e-05
3.78576e-05
3.61483e-05
3.42321e-05
3.21199e-05
2.98537e-05
2.74858e-05
2.50563e-05
2.25952e-05
2.01331e-05
1.77019e-05
1.53346e-05
1.30616e-05
1.09188e-05
8.94134e-06
7.18304e-06
5.86706e-06
5.29353e-06
5.90368e-06
7.93413e-06
5.29461e-05
5.38484e-05
5.48455e-05
5.58803e-05
5.6937e-05
5.80327e-05
5.91255e-05
6.01925e-05
6.12298e-05
6.22184e-05
6.3143e-05
6.39973e-05
6.47712e-05
6.54506e-05
6.60268e-05
6.6484e-05
6.68053e-05
6.69762e-05
6.69767e-05
6.67931e-05
6.64211e-05
6.58247e-05
6.49766e-05
6.39065e-05
6.25924e-05
6.09872e-05
5.90829e-05
5.69149e-05
5.45425e-05
5.20368e-05
4.94669e-05
4.68964e-05
4.437e-05
4.19451e-05
3.96069e-05
3.73952e-05
3.52618e-05
3.24488e-05
3.0329e-05
5.20553e-05
5.11858e-05
5.03012e-05
4.93535e-05
4.83881e-05
4.7411e-05
4.64477e-05
4.55335e-05
4.46739e-05
4.3861e-05
4.30895e-05
4.23497e-05
4.16257e-05
4.08993e-05
4.01535e-05
3.93706e-05
3.85291e-05
3.76099e-05
3.6589e-05
3.54437e-05
3.41518e-05
3.26894e-05
3.10375e-05
2.92036e-05
2.722e-05
2.5132e-05
2.2973e-05
2.07676e-05
1.85413e-05
1.63224e-05
1.4139e-05
1.20183e-05
9.9923e-06
8.09147e-06
6.36602e-06
5.02504e-06
4.42381e-06
5.03617e-06
6.8942e-06
4.71705e-05
4.79825e-05
4.88838e-05
4.98195e-05
5.07793e-05
5.17776e-05
5.27751e-05
5.37555e-05
5.47116e-05
5.56304e-05
5.6496e-05
5.73052e-05
5.80476e-05
5.87152e-05
5.92981e-05
5.97837e-05
6.01598e-05
6.04104e-05
6.0521e-05
6.04752e-05
6.02715e-05
5.98762e-05
5.92621e-05
5.84498e-05
5.74255e-05
5.6146e-05
5.45973e-05
5.28041e-05
5.08086e-05
4.86644e-05
4.64288e-05
4.41554e-05
4.1882e-05
3.96618e-05
3.7478e-05
3.53615e-05
3.32521e-05
3.05447e-05
2.8218e-05
4.6372e-05
4.55929e-05
4.47994e-05
4.39563e-05
4.30967e-05
4.22284e-05
4.1375e-05
4.05679e-05
3.98107e-05
3.90968e-05
3.84219e-05
3.77775e-05
3.71497e-05
3.65237e-05
3.58843e-05
3.52153e-05
3.44988e-05
3.37171e-05
3.285e-05
3.18762e-05
3.07739e-05
2.95209e-05
2.8097e-05
2.65047e-05
2.47704e-05
2.29313e-05
2.10153e-05
1.90426e-05
1.70337e-05
1.50127e-05
1.30034e-05
1.10291e-05
9.11772e-06
7.29414e-06
5.60253e-06
4.23486e-06
3.60344e-06
4.24211e-06
5.97844e-06
4.20611e-05
4.27927e-05
4.36057e-05
4.44521e-05
4.53225e-05
4.62301e-05
4.71402e-05
4.80375e-05
4.89166e-05
4.97657e-05
5.05719e-05
5.13318e-05
5.20386e-05
5.2684e-05
5.32606e-05
5.37588e-05
5.41667e-05
5.44717e-05
5.46611e-05
5.47191e-05
5.46439e-05
5.44075e-05
5.39815e-05
5.33829e-05
5.2598e-05
5.15895e-05
5.03422e-05
4.88711e-05
4.7205e-05
4.53828e-05
4.34492e-05
4.14496e-05
3.9416e-05
3.7389e-05
3.53608e-05
3.3342e-05
3.12814e-05
2.86764e-05
2.62479e-05
4.1345e-05
4.06477e-05
3.9936e-05
3.91837e-05
3.84179e-05
3.76454e-05
3.68875e-05
3.61728e-05
3.55032e-05
3.48737e-05
3.42805e-05
3.37158e-05
3.31683e-05
3.26245e-05
3.20728e-05
3.1498e-05
3.08844e-05
3.02169e-05
2.94775e-05
2.86469e-05
2.77051e-05
2.66297e-05
2.54012e-05
2.40186e-05
2.25021e-05
2.08843e-05
1.91864e-05
1.74247e-05
1.56156e-05
1.37785e-05
1.19338e-05
1.01002e-05
8.30163e-06
6.55687e-06
4.90179e-06
3.50484e-06
2.83593e-06
3.52639e-06
5.18035e-06
3.75341e-05
3.81936e-05
3.89264e-05
3.96916e-05
4.04806e-05
4.1304e-05
4.21333e-05
4.29527e-05
4.37592e-05
4.45411e-05
4.52888e-05
4.59984e-05
4.66648e-05
4.72808e-05
4.78418e-05
4.83379e-05
4.87617e-05
4.91016e-05
4.93457e-05
4.94795e-05
4.95017e-05
4.93884e-05
4.91131e-05
4.86864e-05
4.80981e-05
4.73153e-05
4.63217e-05
4.51246e-05
4.37431e-05
4.22047e-05
4.05426e-05
3.87924e-05
3.69815e-05
3.51411e-05
3.32638e-05
3.13507e-05
2.93563e-05
2.6864e-05
2.44055e-05
3.68924e-05
3.62678e-05
3.56299e-05
3.49575e-05
3.4275e-05
3.35867e-05
3.29126e-05
3.22777e-05
3.1684e-05
3.11263e-05
3.06021e-05
3.01055e-05
2.96257e-05
2.91506e-05
2.86711e-05
2.8174e-05
2.7646e-05
2.70739e-05
2.64411e-05
2.57301e-05
2.4923e-05
2.39986e-05
2.29375e-05
2.17368e-05
2.04123e-05
1.89895e-05
1.74868e-05
1.59157e-05
1.42895e-05
1.26232e-05
1.09339e-05
9.23638e-06
7.54965e-06
5.88735e-06
4.27419e-06
2.84581e-06
2.12411e-06
2.89561e-06
4.49455e-06
3.35182e-05
3.41119e-05
3.47727e-05
3.54636e-05
3.61779e-05
3.69252e-05
3.76788e-05
3.8426e-05
3.91642e-05
3.98822e-05
4.05722e-05
4.12312e-05
4.1855e-05
4.24378e-05
4.29759e-05
4.34624e-05
4.38895e-05
4.42475e-05
4.45265e-05
4.47144e-05
4.48086e-05
4.47894e-05
4.4633e-05
4.43441e-05
4.39145e-05
4.33169e-05
4.25349e-05
4.15693e-05
4.04321e-05
3.91414e-05
3.77208e-05
3.61974e-05
3.45915e-05
3.29277e-05
3.1198e-05
2.93979e-05
2.74818e-05
2.51099e-05
2.26803e-05
3.29428e-05
3.23833e-05
3.18117e-05
3.12107e-05
3.06014e-05
2.99878e-05
2.93875e-05
2.88224e-05
2.82943e-05
2.77987e-05
2.73343e-05
2.68944e-05
2.64712e-05
2.60551e-05
2.56366e-05
2.52046e-05
2.47477e-05
2.42546e-05
2.37108e-05
2.31004e-05
2.24071e-05
2.16115e-05
2.06941e-05
1.96503e-05
1.84934e-05
1.72432e-05
1.59148e-05
1.4516e-05
1.3057e-05
1.15497e-05
1.00072e-05
8.44164e-06
6.867e-06
5.29229e-06
3.73013e-06
2.27274e-06
1.46909e-06
2.36012e-06
3.91585e-06
2.99506e-05
3.04854e-05
3.10804e-05
3.1704e-05
3.23501e-05
3.30272e-05
3.37113e-05
3.43915e-05
3.50656e-05
3.5723e-05
3.63577e-05
3.69672e-05
3.75478e-05
3.80953e-05
3.86064e-05
3.90756e-05
3.94963e-05
3.98607e-05
4.01608e-05
4.03857e-05
4.05312e-05
4.05823e-05
4.05169e-05
4.03364e-05
4.00341e-05
3.95874e-05
3.89795e-05
3.82082e-05
3.72791e-05
3.62027e-05
3.49949e-05
3.36749e-05
3.2258e-05
3.07598e-05
2.91738e-05
2.74884e-05
2.56649e-05
2.34239e-05
2.10634e-05
2.94348e-05
2.89339e-05
2.84215e-05
2.78842e-05
2.73403e-05
2.67928e-05
2.62577e-05
2.57541e-05
2.52834e-05
2.48417e-05
2.44284e-05
2.40382e-05
2.36636e-05
2.32965e-05
2.29292e-05
2.25521e-05
2.21555e-05
2.17291e-05
2.12598e-05
2.07345e-05
2.01378e-05
1.94514e-05
1.86573e-05
1.77499e-05
1.67388e-05
1.56413e-05
1.44679e-05
1.32246e-05
1.19186e-05
1.05591e-05
9.1559e-06
7.71813e-06
6.25652e-06
4.77629e-06
3.27945e-06
1.80885e-06
8.72996e-07
1.93463e-06
3.43996e-06
2.67778e-05
2.7259e-05
2.77945e-05
2.83573e-05
2.89412e-05
2.9554e-05
3.01745e-05
3.07929e-05
3.14069e-05
3.20079e-05
3.25901e-05
3.31516e-05
3.36894e-05
3.42002e-05
3.46814e-05
3.51289e-05
3.5537e-05
3.58997e-05
3.62095e-05
3.64564e-05
3.66365e-05
3.67384e-05
3.67423e-05
3.66455e-05
3.64439e-05
3.61178e-05