/*--------------------------------*- C++ -*----------------------------------*\
| =========                 |                                                 |
| \\      /  F ield         | OpenFOAM: The Open Source CFD Toolbox           |
|  \\    /   O peration     | Version:  2312                                  |
|   \\  /    A nd           | Website:  www.openfoam.com                      |
|    \\/     M anipulation  |                                                 |
\*---------------------------------------------------------------------------*/
FoamFile
{
    version     2.0;
    format      ascii;
    arch        "LSB;label=32;scalar=64";
    class       volScalarField;
    location    "450";
    object      turbulenceProperties:epsilon;
}
// * * * * * * * * * * * * * * * * * * * * * * * * * * * * * * * * * * * * * //

dimensions      [0 2 -3 0 0 0 0];

internalField   nonuniform List<scalar> 
10720
(
0.259336
0.340058
0.452942
0.62353
0.840153
1.1348
1.53073
2.0349
2.684
3.51442
4.57782
5.96433
7.80214
10.2908
13.7709
18.7577
26.236
37.3537
56.0411
83.0157
139.625
211.749
435.012
739.112
736.349
667.449
637.577
637.62
643.537
639.83
623.11
593.544
548.563
489.479
416.611
334.409
232.363
145.739
16.2698
0.194102
0.147051
0.100346
0.0666537
0.0405368
0.0221681
0.0111769
0.00631142
0.00685257
0.0122584
0.0258982
0.0542434
0.107194
0.197731
0.340207
0.553774
0.870459
1.35304
2.12201
3.40242
5.64714
9.7147
17.6458
33.2324
67.6701
140.858
318.996
663.28
945.051
1066.93
1100.19
1101.75
1088.14
1062.38
1025.39
978.924
912.873
836.941
619.375
0.00736068
0.00727969
0.00711408
0.00670935
0.0061062
0.00544777
0.00471907
0.00396206
0.00327804
0.00267032
0.00214888
0.00181988
0.00177254
0.00210474
0.00330683
0.00671033
0.0165558
0.0441971
0.139038
0.449862
1.75675
6.25392
23.4979
83.7536
166.245
234.892
278.161
284.942
250.908
193.118
135.847
91.8918
63.492
45.72
34.266
26.5002
21.7452
17.5739
20.2071
0.00722705
0.0070314
0.0066409
0.00608257
0.00535915
0.00447577
0.00354115
0.00273952
0.002091
0.00153415
0.00108411
0.00075735
0.000526721
0.000363723
0.000249043
0.000169131
0.00011332
7.46795e-05
4.72824e-05
2.7571e-05
1.31807e-05
4.21845e-06
4.013e-07
6.84181e-09
5.59495e-08
0.000986786
0.00606627
0.0512888
0.170777
0.319801
0.466712
0.615418
0.773901
0.946813
1.1346
1.34803
1.59537
2.20741
4.09707
0.0033024
0.00325028
0.00310515
0.0028898
0.00267285
0.00244421
0.00222347
0.00203383
0.00187744
0.00176034
0.00167223
0.0016224
0.00160868
0.00163537
0.00164732
0.00154476
0.00113196
0.00102747
9.39132e-06
0.0154717
5.97971e-17
0.00137611
7.08269e-07
0.0226985
0.510839
2.5376
7.86649
20.0101
42.217
70.4545
91.5381
94.2021
80.0805
60.6726
44.1665
31.9647
23.9921
16.9416
20.4959
0.00335422
0.0033462
0.00332862
0.00321141
0.00300837
0.00268225
0.00226319
0.00182811
0.00146527
0.00113382
0.000824578
0.000571969
0.000384965
0.000253508
0.000165598
0.000108228
7.19472e-05
4.93524e-05
3.55845e-05
2.70797e-05
2.18919e-05
1.88162e-05
1.72177e-05
1.63646e-05
1.63056e-05
1.61195e-05
1.82309e-05
6.37654e-06
0.000167584
0.000992373
0.00208857
0.00364296
0.00959262
0.0265271
0.0598546
0.110668
0.177038
0.222112
0.549916
0.00235402
0.00236378
0.0023401
0.0023013
0.00222224
0.00210713
0.0019679
0.00180075
0.00161879
0.00142882
0.00123791
0.00105123
0.000872796
0.000707438
0.000557577
0.000419011
0.000300551
0.000217829
0.000118527
3.83508e-05
3.88489e-07
1.26799e-05
4.10745e-08
0.00709391
0.0341638
7.06694e-05
0.00309763
0.00179303
0.018506
0.44483
3.20943
11.6304
25.0127
35.4676
37.168
32.39
26.597
19.7619
21.4744
0.00230377
0.00222869
0.00211335
0.0019785
0.0018157
0.00161311
0.00139175
0.00117414
0.000967212
0.000765316
0.000581454
0.000431985
0.00031837
0.000234335
0.000173349
0.000129291
9.78789e-05
7.55207e-05
5.96704e-05
4.81438e-05
3.96878e-05
3.3216e-05
2.79053e-05
2.28189e-05
1.81257e-05
1.4635e-05
1.22458e-05
1.06583e-05
8.88561e-06
6.83589e-06
3.86059e-06
1.5293e-06
2.28611e-05
1.51672e-05
6.85251e-05
0.000868972
0.00493737
0.0189345
0.139753
0.00132482
0.00132014
0.0012996
0.00126337
0.00120833
0.00113566
0.00105084
0.00095677
0.0008581
0.000761853
0.000671391
0.000589993
0.000520285
0.000462944
0.000417789
0.000381676
0.000345255
0.000302369
0.000262953
0.000207044
0.000133583
2.92996e-05
2.5535e-07
6.90004e-09
0
8.99651e-08
0.000583948
0.00710639
0.0348605
0.0158492
0.0243718
0.0158551
0.169083
2.41673
9.07514
16.8969
21.0066
19.7612
21.8245
0.00131797
0.00129939
0.00126279
0.00120527
0.00112645
0.00101935
0.000898222
0.000776693
0.000656842
0.000536839
0.000424835
0.000327908
0.000248292
0.000184947
0.000136048
9.92584e-05
7.22563e-05
5.28538e-05
3.91578e-05
2.95088e-05
2.27133e-05
1.78296e-05
1.41648e-05
1.10619e-05
8.30119e-06
6.10312e-06
4.59807e-06
3.68303e-06
3.31213e-06
2.83272e-06
4.17126e-06
2.07216e-07
8.53464e-06
5.1319e-05
0.000108199
0.000183286
5.47238e-05
0.000241112
0.015043
0.000890098
0.000897705
0.00089698
0.000890586
0.000873175
0.000845324
0.000808728
0.000762611
0.000708803
0.000649673
0.000586669
0.000522166
0.000458394
0.000396982
0.000339299
0.000284288
0.000229863
0.000180023
0.000139022
0.000106698
8.67074e-05
6.38069e-05
4.29678e-05
2.52558e-06
4.97885e-08
8.36448e-09
2.95855e-10
0
0
0.00143934
0.00618572
0.0335397
0.00531448
0.0420008
0.0462946
1.65875
7.51679
13.9869
19.8668
0.000874041
0.000852089
0.000820656
0.000780078
0.000729506
0.00066561
0.000595698
0.000524996
0.000453184
0.000379941
0.00031015
0.000247712
0.000194527
0.00015075
0.00011578
8.85947e-05
6.7915e-05
5.24538e-05
4.10264e-05
3.25765e-05
2.62687e-05
2.1413e-05
1.74699e-05
1.39443e-05
1.07036e-05
8.01571e-06
5.98799e-06
4.51792e-06
3.44447e-06
2.66271e-06
2.07285e-06
1.59971e-06
1.00487e-06
4.1182e-07
3.9228e-14
7.84045e-11
6.59151e-06
4.85055e-05
0.00111917
0.00058246
0.000587587
0.000588407
0.000585433
0.000576143
0.000560234
0.000538357
0.000510265
0.000476733
0.000439274
0.00039912
0.000357819
0.000317053
0.000278194
0.000242175
0.00021001
0.000182831
0.000159208
0.000136784
0.000115052
9.59899e-05
8.16998e-05
7.21213e-05
5.02596e-05
2.23508e-05
5.48497e-06
1.4782e-07
1.22254e-08
3.32987e-09
1.49961e-11
0
0
0.000377698
0.0178017
0.01251
0.0336736
0.415513
4.90077
14.1047
0.000572936
0.000560161
0.000541835
0.000517097
0.000485864
0.000447216
0.000405698
0.000362746
0.000318225
0.000272754
0.000228739
0.00018818
0.000152256
0.000121385
9.5599e-05
7.46305e-05
5.79539e-05
4.49659e-05
3.50183e-05
2.74511e-05
2.16954e-05
1.72522e-05
1.37026e-05
1.06764e-05
8.02405e-06
5.85968e-06
4.23748e-06
3.07547e-06
2.24988e-06
1.67434e-06
1.29929e-06
1.08082e-06
9.63345e-07
8.36408e-07
7.00321e-07
1.36941e-07
7.56811e-10
7.97336e-13
2.56083e-05
0.000400123
0.000405605
0.000408877
0.0004102
0.000407957
0.00040186
0.000392237
0.000378526
0.000360951
0.000340167
0.00031647
0.000290681
0.000263657
0.000236154
0.000208924
0.000182707
0.000157343
0.000132465
0.000109456
8.96723e-05
7.37328e-05
6.23082e-05
5.48849e-05
4.99213e-05
4.10109e-05
2.83591e-05
1.60883e-05
6.94402e-06
2.25455e-06
8.14767e-09
3.86708e-09
3.61343e-12
0
0
0.00112782
0.0241191
0.0272509
0.465467
6.3858
0.000391958
0.00038223
0.000369381
0.000352666
0.000332264
0.000307828
0.0002822
0.00025524
0.000226966
0.000198169
0.000169886
0.000143243
0.000118957
9.73945e-05
7.87667e-05
6.31164e-05
5.02562e-05
3.99306e-05
3.17885e-05
2.54258e-05
2.04513e-05
1.651e-05
1.32879e-05
1.05113e-05
8.06642e-06
6.03469e-06
4.4625e-06
3.28965e-06
2.41531e-06
1.76318e-06
1.28436e-06
9.34615e-07
6.7946e-07
4.93794e-07
3.81389e-07
2.92229e-07
1.45721e-07
1.10737e-09
1.73515e-07
0.000278424
0.000282829
0.000286061
0.000288088
0.000288015
0.000285549
0.000280778
0.000273243
0.000262995
0.000250287
0.00023528
0.00021842
0.000200249
0.000181297
0.000162182
0.000143375
0.000125408
0.000108977
9.40602e-05
8.05631e-05
6.85828e-05
5.84841e-05
5.03925e-05
4.39245e-05
3.75447e-05
3.0407e-05
2.33731e-05
1.70337e-05
1.22762e-05
6.55317e-06
2.85812e-06
3.15644e-09
1.00336e-09
0
0
0
0.00985215
0.0260091
1.52207
0.000272442
0.000265599
0.000256885
0.000245536
0.000232043
0.000216263
0.000199876
0.000182479
0.000164164
0.000145555
0.000127122
0.000109452
9.29633e-05
7.79056e-05
6.44818e-05
5.28127e-05
4.28948e-05
3.46459e-05
2.7912e-05
2.24828e-05
1.81242e-05
1.45991e-05
1.16863e-05
9.19675e-06
7.0412e-06
5.25463e-06
3.86647e-06
2.82985e-06
2.0629e-06
1.49894e-06
1.0928e-06
8.11161e-07
6.24535e-07
5.08873e-07
4.48128e-07
4.56197e-07
5.21582e-07
5.85131e-07
3.91792e-10
0.000197875
0.000201518
0.000204582
0.000206968
0.000208083
0.000207795
0.000206066
0.000202534
0.000197192
0.000190107
0.000181269
0.000170897
0.000159262
0.000146657
0.00013344
0.000119952
0.000106597
9.34609e-05
8.07406e-05
6.90256e-05
5.88371e-05
5.03958e-05
4.35525e-05
3.76042e-05
3.17025e-05
2.56084e-05
1.99721e-05
1.5632e-05
1.26608e-05
1.0461e-05
8.55605e-06
4.60605e-06
7.84034e-07
3.51506e-09
0
0
0
0.0112156
0.18789
0.00019326
0.000188239
0.000182074
0.00017413
0.000164965
0.000154567
0.000143757
0.000132247
0.00012019
0.000107952
9.57606e-05
8.39325e-05
7.26816e-05
6.21556e-05
5.25254e-05
4.39135e-05
3.63665e-05
2.99025e-05
2.44659e-05
1.99587e-05
1.62487e-05
1.31847e-05
1.06165e-05
8.41542e-06
6.51119e-06
4.92237e-06
3.66882e-06
2.71557e-06
1.9978e-06
1.45972e-06
1.06233e-06
7.74741e-07
5.69408e-07
4.3021e-07
3.40953e-07
3.24541e-07
3.15065e-07
8.74023e-07
1.34876e-07
0.000142638
0.000145535
0.000148157
0.00015039
0.000151829
0.000152425
0.000152072
0.000150546
0.000147766
0.000143751
0.000138432
0.000131905
0.000124302
0.000115783
0.000106587
9.69671e-05
8.71735e-05
7.7513e-05
6.8255e-05
5.95983e-05
5.17893e-05
4.49528e-05
3.90649e-05
3.37499e-05
2.84372e-05
2.29774e-05
1.78788e-05
1.38094e-05
1.0936e-05
9.07294e-06
7.81886e-06
7.11038e-06
5.49059e-06
1.86121e-06
4.77603e-09
0
0
0.000407362
0.026944
0.000139129
0.000135442
0.000131053
0.000125411
0.000119063
0.000112079
0.000104771
9.69955e-05
8.8931e-05
8.07651e-05
7.25909e-05
6.45886e-05
5.68717e-05
4.95164e-05
4.26255e-05
3.63003e-05
3.05998e-05
2.55683e-05
2.12133e-05
1.74994e-05
1.436e-05
1.17102e-05
9.4569e-06
7.51614e-06
5.84107e-06
4.43992e-06
3.32318e-06
2.46504e-06
1.81506e-06
1.32715e-06
9.67464e-07
7.09338e-07
5.2973e-07
4.12178e-07
3.40308e-07
3.31748e-07
3.28946e-07
6.58347e-07
1.03282e-06
0.000104215
0.000106523
0.000108714
0.000110683
0.000112174
0.000113149
0.000113527
0.000113126
0.000111884
0.000109782
0.000106741
0.000102791
9.79818e-05
9.23929e-05
8.61545e-05
7.94219e-05
7.23782e-05
6.52407e-05
5.81233e-05
5.12314e-05
4.4877e-05
3.92337e-05
3.42838e-05
2.97691e-05
2.52877e-05
2.07023e-05
1.6351e-05
1.27308e-05
1.00222e-05
8.08747e-06
6.67458e-06
5.83451e-06
5.44562e-06
5.03594e-06
2.17556e-06
2.93138e-09
0
0.000102313
0.00824031
0.000101532
9.87721e-05
9.5598e-05
9.15381e-05
8.70657e-05
8.22714e-05
7.72343e-05
7.18928e-05
6.64161e-05
6.08817e-05
5.53376e-05
4.98781e-05
4.45551e-05
3.9396e-05
3.44732e-05
2.98517e-05
2.55774e-05
2.1703e-05
1.82529e-05
1.52328e-05
1.26191e-05
1.03675e-05
8.42145e-06
6.73087e-06
5.27007e-06
4.04136e-06
3.05088e-06
2.27965e-06
1.68903e-06
1.24147e-06
9.07901e-07
6.65305e-07
4.92825e-07
3.76358e-07
3.03222e-07
2.85492e-07
2.91884e-07
4.81882e-07
1.2299e-06
7.69961e-05
7.88236e-05
8.06165e-05
8.22861e-05
8.36585e-05
8.47148e-05
8.53985e-05
8.55623e-05
8.51546e-05
8.41485e-05
8.24672e-05
8.01126e-05
7.70922e-05
7.34306e-05
6.92057e-05
6.45124e-05
5.94639e-05
5.42299e-05
4.89402e-05
4.3734e-05
3.88001e-05
3.42769e-05
3.01694e-05
2.63339e-05
2.25277e-05
1.86624e-05
1.49754e-05
1.18378e-05
9.4123e-06
7.59173e-06
6.19453e-06
5.14425e-06
4.47321e-06
4.2232e-06
4.6275e-06
1.22084e-06
5.52207e-13
3.03258e-05
0.0027417
7.49444e-05
7.28624e-05
7.05323e-05
6.75831e-05
6.43884e-05
6.10324e-05
5.75024e-05
5.37783e-05
5.00047e-05
4.62086e-05
4.24056e-05
3.86436e-05
3.49469e-05
3.13239e-05
2.78049e-05
2.44351e-05
2.1249e-05
1.82896e-05
1.5586e-05
1.31565e-05
1.10018e-05
9.10515e-06
7.43921e-06
5.97904e-06
4.71161e-06
3.63962e-06
2.76616e-06
2.07787e-06
1.54571e-06
1.13958e-06
8.35177e-07
6.12951e-07
4.55097e-07
3.48773e-07
2.82408e-07
2.64161e-07
2.71699e-07
4.08711e-07
1.03845e-06
5.74538e-05
5.88954e-05
6.03488e-05
6.17374e-05
6.29417e-05
6.39606e-05
6.47403e-05
6.51729e-05
6.5223e-05
6.48554e-05
6.40111e-05
6.26706e-05
6.08312e-05
5.84939e-05
5.5691e-05
5.24744e-05
4.8912e-05
4.51244e-05
4.12004e-05
3.72303e-05
3.33574e-05
2.97247e-05
2.63505e-05
2.31481e-05
1.99612e-05
1.6731e-05
1.36272e-05
1.09338e-05
8.80003e-06
7.16095e-06
5.88132e-06
4.86879e-06
4.09597e-06
3.57056e-06
3.46398e-06
4.93388e-06
1.32327e-12
5.1135e-07
0.000681255
5.58701e-05
5.42923e-05
5.25555e-05
5.0393e-05
4.80852e-05
4.56923e-05
4.31778e-05
4.05544e-05
3.79188e-05
3.52815e-05
3.26434e-05
3.00317e-05
2.74503e-05
2.48933e-05
2.23792e-05
1.99288e-05
1.75632e-05
1.53168e-05
1.32164e-05
1.12825e-05
9.52542e-06
7.94623e-06
6.53616e-06
5.28782e-06
4.19736e-06
3.26795e-06
2.50272e-06
1.89224e-06
1.41511e-06
1.04782e-06
7.70277e-07
5.65978e-07
4.19405e-07
3.19366e-07
2.55791e-07
2.35568e-07
2.39772e-07
3.50325e-07
8.4061e-07
4.32425e-05
4.43767e-05
4.55496e-05
4.66858e-05
4.77116e-05
4.86338e-05
4.93979e-05
4.99325e-05
5.02105e-05
5.01978e-05
4.98487e-05
4.91435e-05
4.80638e-05
4.66007e-05
4.47622e-05
4.25786e-05
4.00917e-05
3.73702e-05
3.44939e-05
3.15239e-05
2.85424e-05
2.56721e-05
2.29383e-05
2.0293e-05
1.76445e-05
1.4957e-05
1.23521e-05
1.00467e-05
8.17524e-06
6.71053e-06
5.55431e-06
4.63742e-06
3.90291e-06
3.39572e-06
2.75841e-06
4.2091e-06
1.08534e-06
3.40278e-11
3.58915e-05
4.20118e-05
4.08083e-05
3.95021e-05
3.78987e-05
3.62142e-05
3.4481e-05
3.2668e-05
3.07976e-05
2.89359e-05
2.70829e-05
2.52358e-05
2.34051e-05
2.15896e-05
1.97793e-05
1.79784e-05
1.6199e-05
1.44507e-05
1.27551e-05
1.11338e-05
9.60673e-06
8.18932e-06
6.88973e-06
5.70926e-06
4.64957e-06
3.71635e-06
2.91546e-06
2.24919e-06
1.71118e-06
1.28613e-06
9.56021e-07
7.04615e-07
5.18233e-07
3.83709e-07
2.91328e-07
2.32024e-07
2.11249e-07
2.12743e-07
2.99841e-07
6.83962e-07
3.27917e-05
3.36872e-05
3.46288e-05
3.55516e-05
3.64133e-05
3.72157e-05
3.79183e-05
3.8468e-05
3.88452e-05
3.90218e-05
3.89602e-05
3.86404e-05
3.80463e-05
3.71611e-05
3.59885e-05
3.45354e-05
3.28245e-05
3.08937e-05
2.88081e-05
2.65999e-05
2.43199e-05
2.2067e-05
1.98728e-05
1.77143e-05
1.5535e-05
1.33158e-05
1.11448e-05
9.18597e-06
7.55566e-06
6.25284e-06
5.21041e-06
4.38035e-06
3.70919e-06
3.24892e-06
2.69927e-06
2.77197e-06
3.90155e-06
5.23789e-12
2.18267e-07
3.18347e-05
3.09067e-05
2.99174e-05
2.87177e-05
2.74766e-05
2.62042e-05
2.48808e-05
2.35329e-05
2.22027e-05
2.0887e-05
1.95803e-05
1.82885e-05
1.70044e-05
1.57158e-05
1.4424e-05
1.313e-05
1.184e-05
1.05661e-05
9.3234e-06
8.12794e-06
6.99433e-06
5.93438e-06
4.95504e-06
4.06503e-06
3.27341e-06
2.58787e-06
2.01127e-06
1.54006e-06
1.16366e-06
8.68584e-07
6.41932e-07
4.72532e-07
3.4926e-07
2.63778e-07
2.08123e-07
1.8664e-07
1.85898e-07
2.53533e-07
5.55855e-07
2.50316e-05
2.57411e-05
2.64936e-05
2.72419e-05
2.7956e-05
2.8639e-05
2.92602e-05
2.97802e-05
3.01815e-05
3.04449e-05
3.05405e-05
3.04511e-05
3.01639e-05
2.966e-05
2.89343e-05
2.79865e-05
2.68265e-05
2.54746e-05
2.39767e-05
2.23541e-05
2.06346e-05
1.88874e-05
1.7147e-05
1.54057e-05
1.36301e-05
1.18104e-05
1.00126e-05
8.35992e-06
6.95067e-06
5.79975e-06
4.86497e-06
4.11123e-06
3.50452e-06
3.04958e-06
2.71857e-06
2.12207e-06
4.56293e-06
4.89139e-11
7.24519e-18
2.42869e-05
2.35678e-05
2.28101e-05
2.1906e-05
2.09831e-05
2.00379e-05
1.90618e-05
1.8081e-05
1.71208e-05
1.61769e-05
1.52446e-05
1.43242e-05
1.34089e-05
1.24882e-05
1.1558e-05
1.06176e-05
9.6667e-06
8.71328e-06
7.76574e-06
6.83655e-06
5.93783e-06
5.08078e-06
4.2754e-06
3.5335e-06
2.86694e-06
2.28367e-06
1.78788e-06
1.37787e-06
1.04663e-06
7.84414e-07
5.81226e-07
4.2807e-07
3.15747e-07
2.37172e-07
1.85361e-07
1.63644e-07
1.61122e-07
2.12869e-07
4.48987e-07
1.92212e-05
1.97833e-05
2.03839e-05
2.09903e-05
2.15759e-05
2.21507e-05
2.26859e-05
2.31542e-05
2.35428e-05
2.38368e-05
2.40121e-05
2.40572e-05
2.39564e-05
2.36953e-05
2.32668e-05
2.26662e-05
2.18966e-05
2.09653e-05
1.99027e-05
1.87233e-05
1.74414e-05
1.60993e-05
1.47338e-05
1.33452e-05
1.19126e-05
1.04327e-05
8.95448e-06
7.57085e-06
6.36313e-06
5.35484e-06
4.52315e-06
3.84166e-06
3.29462e-06
2.85136e-06
2.61109e-06
2.0072e-06
3.35863e-06
4.76987e-07
7.58866e-11
1.86389e-05
1.80794e-05
1.74949e-05
1.68081e-05
1.61165e-05
1.54069e-05
1.46804e-05
1.39594e-05
1.32594e-05
1.25755e-05
1.19041e-05
1.12437e-05
1.05873e-05
9.92505e-06
9.25314e-06
8.568e-06
7.86755e-06
7.15537e-06
6.43622e-06
5.71792e-06
5.01058e-06
4.32431e-06
3.66849e-06
3.05475e-06
2.49643e-06
2.00358e-06
1.58014e-06
1.22573e-06
9.36064e-07
7.04419e-07
5.23256e-07
3.85458e-07
2.83559e-07
2.11586e-07
1.63495e-07
1.41811e-07
1.37899e-07
1.77254e-07
3.60075e-07
1.4837e-05
1.52819e-05
1.57632e-05
1.62515e-05
1.67316e-05
1.72093e-05
1.76645e-05
1.80737e-05
1.84305e-05
1.87218e-05
1.89296e-05
1.90435e-05
1.90532e-05
1.89447e-05
1.87124e-05
1.8348e-05
1.78505e-05
1.72225e-05
1.6479e-05
1.56324e-05
1.4688e-05
1.36687e-05
1.26099e-05
1.15153e-05
1.03713e-05
9.17732e-06
7.9707e-06
6.82132e-06
5.79534e-06
4.91984e-06
4.18577e-06
3.57516e-06
3.08071e-06
2.67182e-06
2.42302e-06
2.03253e-06
2.28316e-06
2.01657e-06
2.03257e-08
1.43798e-05
1.39424e-05
1.34889e-05
1.29644e-05
1.24406e-05
1.19039e-05
1.13584e-05
1.08239e-05
1.03085e-05
9.80889e-06
9.3211e-06
8.84303e-06
8.36884e-06
7.88992e-06
7.4022e-06
6.90202e-06
6.38582e-06
5.85442e-06
5.31034e-06
4.75855e-06
4.20532e-06
3.6589e-06
3.12816e-06
2.62494e-06
2.16172e-06
1.74804e-06
1.38851e-06
1.08399e-06
8.32212e-07
6.2875e-07
4.68104e-07
3.44761e-07
2.52792e-07
1.87192e-07
1.42799e-07
1.21487e-07
1.16547e-07
1.46249e-07
2.86606e-07
1.1506e-05
1.18589e-05
1.22442e-05
1.2638e-05
1.30293e-05
1.34247e-05
1.38062e-05
1.41581e-05
1.44748e-05
1.47461e-05
1.49589e-05
1.51055e-05
1.51771e-05
1.51631e-05
1.50562e-05
1.48498e-05
1.454e-05
1.41263e-05
1.36137e-05
1.30143e-05
1.23282e-05
1.15641e-05
1.0752e-05
9.89829e-06
8.99387e-06
8.03913e-06
7.06194e-06
6.11477e-06
5.2507e-06
4.49722e-06
3.85438e-06
3.31229e-06
2.86557e-06
2.50007e-06
2.22952e-06
2.00315e-06
1.78743e-06
2.30419e-06
4.96055e-07
1.1146e-05
1.08025e-05
1.04492e-05
1.00466e-05
9.64562e-06
9.23707e-06
8.82464e-06
8.42443e-06
8.04174e-06
7.67336e-06
7.31592e-06
6.96722e-06
6.62201e-06
6.27378e-06
5.91828e-06
5.55176e-06
5.17086e-06
4.77483e-06
4.36398e-06
3.94128e-06
3.51127e-06
3.07961e-06
2.65337e-06
2.24337e-06
1.86137e-06
1.51622e-06
1.21286e-06
9.52878e-07
7.3542e-07
5.5778e-07
4.16128e-07
3.06296e-07
2.23696e-07
1.64175e-07
1.23402e-07
1.02734e-07
9.70944e-08
1.19501e-07
2.26643e-07
8.95967e-06
9.24061e-06
9.54887e-06
9.8662e-06
1.01847e-05
1.051e-05
1.08273e-05
1.11259e-05
1.1401e-05
1.16449e-05
1.18478e-05
1.20039e-05
1.2106e-05
1.21458e-05
1.21173e-05
1.20144e-05
1.1832e-05
1.1568e-05
1.12233e-05
1.08074e-05
1.03159e-05
9.75089e-06
9.13539e-06
8.47712e-06
7.76957e-06
7.01281e-06
6.22772e-06
5.45348e-06
4.73213e-06
4.08954e-06
3.53121e-06
3.05385e-06
2.65261e-06
2.32694e-06
2.05643e-06
1.89227e-06
1.60575e-06
1.87745e-06
1.24844e-06
8.67561e-06
8.4048e-06
8.12852e-06
7.81784e-06
7.50867e-06
7.19523e-06
6.88136e-06
6.57959e-06
6.29305e-06
6.01911e-06
5.75465e-06
5.49792e-06
5.24498e-06
4.99003e-06
4.72966e-06
4.46014e-06
4.17831e-06
3.88301e-06
3.57353e-06
3.25091e-06
2.91772e-06
2.57851e-06
2.23873e-06
1.90702e-06
1.59368e-06
1.30747e-06
1.05316e-06
8.32611e-07
6.45936e-07
4.91739e-07
3.67513e-07
2.70217e-07
1.96397e-07
1.42651e-07
1.0542e-07
8.5655e-08
7.96122e-08
9.65323e-08
1.77935e-07
7.00265e-06
7.2264e-06
7.47375e-06
7.72901e-06
7.98816e-06
8.25469e-06
8.5174e-06
8.76827e-06
9.00364e-06
9.2177e-06
9.40274e-06
9.55476e-06
9.66838e-06
9.73674e-06
9.75569e-06
9.71872e-06
9.6218e-06
9.46204e-06
9.23716e-06
8.95368e-06
8.60684e-06
8.19525e-06
7.73482e-06
7.23291e-06
6.68555e-06
6.09165e-06
5.46628e-06
4.8388e-06
4.24202e-06
3.69893e-06
3.21826e-06
2.80106e-06
2.4441e-06
2.1522e-06
1.89978e-06
1.74222e-06
1.51429e-06
1.48839e-06
1.45729e-06
6.77831e-06
6.56371e-06
6.34685e-06
6.10588e-06
5.86613e-06
5.6243e-06
5.38388e-06
5.15451e-06
4.93816e-06
4.7325e-06
4.53557e-06
4.3453e-06
4.15833e-06
3.97027e-06
3.77826e-06
3.57936e-06
3.37039e-06
3.14982e-06
2.91663e-06
2.67092e-06
2.41407e-06
2.14868e-06
1.879e-06
1.61212e-06
1.35701e-06
1.12122e-06
9.09226e-07
7.23206e-07
5.63868e-07
4.30765e-07
3.22409e-07
2.36683e-07
1.71034e-07
1.22745e-07
8.89492e-08
7.02998e-08
6.41376e-08
7.70063e-08
1.38715e-07
5.49123e-06
5.66982e-06
5.86811e-06
6.07374e-06
6.28433e-06
6.50206e-06
6.71884e-06
6.92784e-06
7.12722e-06
7.31181e-06
7.47634e-06
7.61749e-06
7.73138e-06
7.81253e-06
7.85746e-06
7.86129e-06
7.81998e-06
7.73051e-06
7.58975e-06
7.40134e-06
7.16155e-06
6.86702e-06
6.5273e-06
6.14939e-06
5.73064e-06
5.26911e-06
4.77539e-06
4.27132e-06
3.78208e-06
3.32743e-06
2.91725e-06
2.55536e-06
2.24071e-06
1.97871e-06
1.75081e-06
1.58845e-06
1.41846e-06
1.25586e-06
1.31513e-06
5.31369e-06
5.14334e-06
4.97242e-06
4.78453e-06
4.59759e-06
4.41011e-06
4.22464e-06
4.0492e-06
3.88464e-06
3.72912e-06
3.58095e-06
3.43869e-06
3.29941e-06
3.15991e-06
3.01769e-06
2.86998e-06
2.71442e-06
2.54948e-06
2.37372e-06
2.18674e-06
1.98916e-06
1.78246e-06
1.56954e-06
1.35606e-06
1.14941e-06
9.56247e-07
7.80451e-07
6.24423e-07
4.89209e-07
3.74975e-07
2.80976e-07
2.05829e-07
1.47729e-07
1.0456e-07
7.40713e-08
5.66986e-08
5.0634e-08
6.05693e-08
1.07423e-07
4.31893e-06
4.46157e-06
4.6206e-06
4.78654e-06
4.95715e-06
5.13488e-06
5.31296e-06
5.48646e-06
5.6536e-06
5.81101e-06
5.95418e-06
6.08118e-06
6.18846e-06
6.27259e-06
6.33049e-06
6.35804e-06
6.35206e-06
6.30931e-06
6.227e-06
6.10636e-06
5.9446e-06
5.7382e-06
5.49123e-06
5.21048e-06
4.89364e-06
4.53856e-06
4.15238e-06
3.75111e-06
3.35368e-06
2.97666e-06
2.62982e-06
2.31851e-06
2.04338e-06
1.8093e-06
1.60518e-06
1.44398e-06
1.30299e-06
1.11222e-06
1.11347e-06
4.17784e-06
4.04274e-06
3.90743e-06
3.76036e-06
3.61397e-06
3.46782e-06
3.32401e-06
3.18876e-06
3.06264e-06
2.94408e-06
2.83192e-06
2.72477e-06
2.62034e-06
2.51591e-06
2.40964e-06
2.29947e-06
2.18327e-06
2.05958e-06
1.92699e-06
1.78486e-06
1.6332e-06
1.47271e-06
1.30529e-06
1.13525e-06
9.68623e-07
8.11037e-07
6.66161e-07
5.36003e-07
4.21888e-07
3.24383e-07
2.43264e-07
1.7772e-07
1.26561e-07
8.81706e-08
6.08323e-08
4.48483e-08
3.90648e-08
4.68659e-08
8.25934e-08
3.40597e-06
3.52001e-06
3.64762e-06
3.78164e-06
3.91983e-06
4.0647e-06
4.21063e-06
4.35392e-06
4.49343e-06
4.62624e-06
4.74928e-06
4.86094e-06
4.95865e-06
5.03987e-06
5.10193e-06
5.14211e-06
5.15733e-06
5.14487e-06
5.10223e-06
5.02885e-06
4.92354e-06
4.78197e-06
4.60526e-06
4.39949e-06
4.16304e-06
3.89303e-06
3.59402e-06
3.27753e-06
2.95775e-06
2.64794e-06
2.35736e-06
2.09178e-06
1.85308e-06
1.64563e-06
1.46288e-06
1.30974e-06
1.17962e-06
1.00079e-06
9.44052e-07
3.29365e-06
3.18626e-06
3.07884e-06
2.96333e-06
2.84826e-06
2.73372e-06
2.62174e-06
2.51692e-06
2.41957e-06
2.32858e-06
2.24292e-06
2.16145e-06
2.08238e-06
2.00381e-06
1.92405e-06
1.84133e-06
1.75409e-06
1.66104e-06
1.5609e-06
1.45275e-06
1.3364e-06
1.21204e-06
1.08088e-06
9.46042e-07
8.12387e-07
6.84457e-07
5.65583e-07
4.57541e-07
3.61734e-07
2.78917e-07
2.09263e-07
1.52387e-07
1.07561e-07
7.36e-08
4.92358e-08
3.47016e-08
2.93311e-08
3.56168e-08
6.30965e-08
2.69234e-06
2.78374e-06
2.88625e-06
2.99435e-06
3.10635e-06
3.2242e-06
3.34359e-06
3.46146e-06
3.57738e-06
3.68868e-06
3.79332e-06
3.88991e-06
3.9768e-06
4.05172e-06
4.11301e-06
4.15846e-06
4.1855e-06
4.19191e-06
4.17536e-06
4.13459e-06
4.06915e-06
3.97516e-06
3.85135e-06
3.7031e-06
3.52889e-06
3.32577e-06
3.09646e-06
2.84917e-06
2.59436e-06
2.34225e-06
2.10099e-06
1.87634e-06
1.67092e-06
1.48835e-06
1.32524e-06
1.18337e-06
1.05902e-06
8.98456e-07
8.10064e-07
2.60297e-06
2.51737e-06
2.43181e-06
2.34087e-06
2.25011e-06
2.15998e-06
2.0724e-06
1.99065e-06
1.91509e-06
1.84473e-06
1.77888e-06
1.71651e-06
1.65624e-06
1.59656e-06
1.53624e-06
1.47387e-06
1.40807e-06
1.33774e-06
1.2619e-06
1.17962e-06
1.09042e-06
9.94174e-07
8.91567e-07
7.84939e-07
6.78081e-07
5.7478e-07
4.77659e-07
3.88433e-07
3.08395e-07
2.38409e-07
1.78909e-07
1.298e-07
9.07061e-08
6.08258e-08
3.92553e-08
2.61892e-08
2.13193e-08
2.65172e-08
4.78939e-08
2.13281e-06
2.20612e-06
2.28859e-06
2.37575e-06
2.46646e-06
2.5623e-06
2.6597e-06
2.75656e-06
2.85239e-06
2.94524e-06
3.03342e-06
3.11606e-06
3.19187e-06
3.25919e-06
3.31683e-06
3.36291e-06
3.3955e-06
3.41289e-06
3.41293e-06
3.39425e-06
3.35655e-06
3.29654e-06
3.21214e-06
3.1072e-06
2.98073e-06
2.82981e-06
2.65585e-06
2.46451e-06
2.26334e-06
2.06016e-06
1.86169e-06
1.67323e-06
1.4978e-06
1.33856e-06
1.19348e-06
1.06391e-06
9.45964e-07
8.01062e-07
6.99822e-07
2.06164e-06
1.99334e-06
1.92504e-06
1.8532e-06
1.78141e-06
1.71019e-06
1.6414e-06
1.57742e-06
1.51843e-06
1.46367e-06
1.41263e-06
1.36455e-06
1.31829e-06
1.27268e-06
1.22669e-06
1.17932e-06
1.12944e-06
1.0762e-06
1.01856e-06
9.55798e-07
8.87391e-07
8.1302e-07
7.32928e-07
6.4887e-07
5.63718e-07
4.8055e-07
4.01533e-07
3.2814e-07
2.61557e-07
2.02699e-07
1.52098e-07
1.09893e-07
7.59651e-08
4.98124e-08
3.08332e-08
1.92115e-08
1.48893e-08
1.92967e-08
3.61617e-08
1.69288e-06
1.75166e-06
1.81809e-06
1.88835e-06
1.96181e-06
2.03971e-06
2.11905e-06
2.19851e-06
2.27741e-06
2.35454e-06
2.42838e-06
2.49844e-06
2.5636e-06
2.62291e-06
2.67524e-06
2.71924e-06
2.75356e-06
2.77654e-06
2.78671e-06
2.7825e-06
2.76379e-06
2.72765e-06
2.67198e-06
2.59924e-06
2.50893e-06
2.39838e-06
2.26789e-06
2.12136e-06
1.96405e-06
1.80178e-06
1.64003e-06
1.48335e-06
1.33453e-06
1.1968e-06
1.06863e-06
9.51337e-07
8.41214e-07
7.09802e-07
6.05786e-07
1.63605e-06
1.58153e-06
1.52696e-06
1.47003e-06
1.41311e-06
1.35674e-06
1.30245e-06
1.25214e-06
1.20583e-06
1.16297e-06
1.12317e-06
1.08581e-06
1.05002e-06
1.01493e-06
9.7971e-07
9.43521e-07
9.05514e-07
8.64943e-07
8.2103e-07
7.73075e-07
7.20533e-07
6.63051e-07
6.00629e-07
5.3448e-07
4.66823e-07
4.00078e-07
3.36014e-07
2.75891e-07
2.20751e-07
1.71476e-07
1.28646e-07
9.25468e-08
6.32494e-08
4.04792e-08
2.38809e-08
1.36446e-08
9.87911e-09
1.36913e-08
2.7193e-08
1.346e-06
1.39324e-06
1.44668e-06
1.50338e-06
1.56283e-06
1.62605e-06
1.6907e-06
1.75567e-06
1.82052e-06
1.88427e-06
1.94582e-06
2.00472e-06
2.06031e-06
2.11173e-06
2.15821e-06
2.19877e-06
2.23227e-06
2.25747e-06
2.2732e-06
2.27802e-06
2.27177e-06
2.25215e-06
2.21702e-06
2.16812e-06
2.10483e-06
2.02489e-06
1.92816e-06
1.81712e-06
1.69533e-06
1.56697e-06
1.43629e-06
1.30713e-06
1.18201e-06
1.06356e-06
9.51302e-07
8.45778e-07
7.44464e-07
6.25628e-07
5.24145e-07
1.30056e-06
1.25706e-06
1.21343e-06
1.16814e-06
1.12293e-06
1.07823e-06
1.03525e-06
9.95522e-07
9.59008e-07
9.25302e-07
8.94091e-07
8.6488e-07
8.37018e-07
8.09798e-07
7.8264e-07
7.54837e-07
7.25716e-07
6.94687e-07
6.61104e-07
6.2437e-07
5.83992e-07
5.39536e-07
4.90902e-07
4.38915e-07
3.85241e-07
3.31839e-07
2.80075e-07
2.31004e-07
1.85525e-07
1.4444e-07
1.08353e-07
7.76152e-08
5.24338e-08
3.27097e-08
1.82807e-08
9.34587e-09
6.11888e-09
9.46115e-09
2.04174e-08
1.07186e-06
1.10986e-06
1.15285e-06
1.19862e-06
1.24675e-06
1.29798e-06
1.35062e-06
1.40367e-06
1.45687e-06
1.5094e-06
1.5605e-06
1.60978e-06
1.65676e-06
1.70079e-06
1.74139e-06
1.77769e-06
1.809e-06
1.8343e-06
1.85259e-06
1.86265e-06
1.86432e-06
1.85579e-06
1.83516e-06
1.80341e-06
1.76009e-06
1.70326e-06
1.63248e-06
1.54919e-06
1.45579e-06
1.35519e-06
1.25055e-06
1.1449e-06
1.0405e-06
9.39518e-07
8.41817e-07
7.47769e-07
6.55651e-07
5.49049e-07
4.53147e-07
1.03552e-06
1.00075e-06
9.65861e-07
9.2975e-07
8.93799e-07
8.58265e-07
8.2416e-07
7.92673e-07
7.63778e-07
7.37128e-07
7.12509e-07
6.89575e-07
6.67766e-07
6.46522e-07
6.25428e-07
6.03928e-07
5.81503e-07
5.57687e-07
5.31922e-07
5.037e-07
4.72596e-07
4.38186e-07
4.00294e-07
3.59484e-07
3.1701e-07
2.74355e-07
2.32652e-07
1.92725e-07
1.55352e-07
1.21235e-07
9.09564e-08
6.49065e-08
4.33648e-08
2.63708e-08
1.38992e-08
6.16162e-09
3.4327e-09
6.37913e-09
1.53693e-08
8.54761e-07
8.85315e-07
9.19945e-07
9.56863e-07
9.95799e-07
1.03736e-06
1.08013e-06
1.1234e-06
1.16697e-06
1.21015e-06
1.25239e-06
1.2934e-06
1.33283e-06
1.37021e-06
1.40518e-06
1.43717e-06
1.46555e-06
1.48956e-06
1.5084e-06
1.52116e-06
1.52757e-06
1.52626e-06
1.51562e-06
1.49607e-06
1.46722e-06
1.42756e-06
1.37648e-06
1.31469e-06
1.24374e-06
1.1656e-06
1.08253e-06
9.96854e-07
9.10361e-07
8.24893e-07
7.40504e-07
6.57514e-07
5.74594e-07
4.79688e-07
3.91347e-07
8.2567e-07
7.97859e-07
7.69942e-07
7.41127e-07
7.12476e-07
6.84187e-07
6.57073e-07
6.32046e-07
6.09096e-07
5.87944e-07
5.68468e-07
5.50318e-07
5.33132e-07
5.16503e-07
5.00046e-07
4.83334e-07
4.65971e-07
4.47588e-07
4.27741e-07
4.06002e-07
3.81996e-07
3.55353e-07
3.25823e-07
2.93783e-07
2.6021e-07
2.26216e-07
1.92702e-07
1.60318e-07
1.2971e-07
1.01491e-07
7.61918e-08
5.42175e-08
3.58772e-08
2.13094e-08
1.0586e-08
3.92992e-09
1.64203e-09
4.23792e-09
1.16663e-08
6.82491e-07
7.07078e-07
7.3495e-07
7.64739e-07
7.96225e-07
8.29902e-07
8.6464e-07
8.9988e-07
9.35502e-07
9.70906e-07
1.00571e-06
1.03972e-06
1.07263e-06
1.10414e-06
1.13397e-06
1.1617e-06
1.18685e-06
1.20884e-06
1.22711e-06
1.24089e-06
1.24985e-06
1.25301e-06
1.24897e-06
1.23786e-06
1.21938e-06
1.19232e-06
1.15598e-06
1.11069e-06
1.05732e-06
9.97148e-07
9.31722e-07
8.62759e-07
7.9168e-07
7.19848e-07
6.47532e-07
5.74871e-07
5.01131e-07
4.17433e-07
3.37537e-07
6.59187e-07
6.3694e-07
6.1458e-07
5.91567e-07
5.68714e-07
5.46165e-07
5.24567e-07
5.04639e-07
4.86361e-07
4.69519e-07
4.54023e-07
4.39635e-07
4.26039e-07
4.12923e-07
4.00006e-07
3.86959e-07
3.73468e-07
3.59228e-07
3.4388e-07
3.27098e-07
3.0854e-07
2.87866e-07
2.64842e-07
2.39706e-07
2.13176e-07
1.86136e-07
1.59256e-07
1.33062e-07
1.08078e-07
8.48287e-08
6.37806e-08
4.53221e-08
2.97818e-08
1.73567e-08
8.18248e-09
2.48936e-09
5.7984e-10
2.8476e-09
9.00307e-09
5.45551e-07
5.65336e-07
5.87764e-07
6.11806e-07
6.37261e-07
6.64532e-07
6.92731e-07
7.21412e-07
7.50472e-07
7.79467e-07
8.08079e-07
8.36163e-07
8.6351e-07
8.89895e-07
9.15111e-07
9.38877e-07
9.60821e-07
9.80532e-07
9.97526e-07
1.01118e-06
1.02119e-06
1.02688e-06
1.0271e-06
1.02169e-06
1.01048e-06
9.92478e-07