/*--------------------------------*- C++ -*----------------------------------*\
| =========                 |                                                 |
| \\      /  F ield         | OpenFOAM: The Open Source CFD Toolbox           |
|  \\    /   O peration     | Version:  2312                                  |
|   \\  /    A nd           | Website:  www.openfoam.com                      |
|    \\/     M anipulation  |                                                 |
\*---------------------------------------------------------------------------*/
FoamFile
{
    version     2.0;
    format      ascii;
    arch        "LSB;label=32;scalar=64";
    class       volVectorField;
    location    "450";
    object      U;
}
// * * * * * * * * * * * * * * * * * * * * * * * * * * * * * * * * * * * * * //

dimensions      [0 1 -1 0 0 0 0];

internalField   nonuniform List<vector> 
10720
(
(0.22731 27.647 1.44214e-17)
(1.96455 29.9432 -1.32688e-17)
(4.13735 32.1616 0)
(6.63499 33.8946 -4.01052e-16)
(9.39108 35.2247 4.47779e-16)
(12.3373 36.1101 3.26555e-16)
(15.3188 36.4524 4.53379e-16)
(18.2397 36.2859 0)
(21.0151 35.6757 0)
(23.5619 34.6566 0)
(25.8434 33.3238 1.213e-16)
(27.8127 31.7263 0)
(29.4229 29.8609 2.44535e-15)
(30.6576 27.7678 0)
(31.4739 25.4622 0)
(31.8438 22.9751 0)
(31.6969 20.3078 -4.42958e-15)
(30.9558 17.4968 -6.86061e-15)
(29.4862 14.5542 6.41625e-15)
(27.1602 11.5447 0)
(23.8373 8.53233 6.38084e-15)
(19.5672 5.67763 -1.4761e-14)
(14.8907 3.22865 9.17818e-15)
(11.4419 1.44084 -3.36386e-16)
(10.0586 0.260789 0)
(10.6979 -0.359085 4.6557e-15)
(12.119 -0.599429 6.00259e-17)
(13.6268 -0.71947 -1.40912e-15)
(14.8699 -0.87103 -4.56077e-15)
(15.6929 -1.08642 -1.50844e-14)
(16.1261 -1.34675 6.28525e-15)
(16.2637 -1.62023 1.08487e-14)
(16.0628 -1.86605 8.83857e-15)
(15.5559 -2.06068 2.8935e-14)
(14.7264 -2.17973 -1.1253e-14)
(13.5776 -2.20862 -7.77235e-17)
(11.7315 -2.06545 2.24759e-17)
(9.73184 -1.81438 2.81611e-15)
(3.62801 -1.08799 1.25475e-14)
(-1.14269 25.1965 -7.3727e-19)
(-2.24856 22.436 -1.33404e-17)
(-3.01403 19.3292 5.82496e-17)
(-3.31646 15.733 -1.69161e-16)
(-2.99628 12.0183 -5.68388e-16)
(-2.02375 8.32071 1.01479e-15)
(-0.486662 4.95176 5.32846e-15)
(1.36441 2.18879 3.17758e-15)
(3.32268 -0.139538 0)
(5.55303 -2.15991 0)
(7.8488 -3.66178 2.11884e-15)
(9.96514 -4.62795 7.70592e-16)
(11.8356 -5.18648 -1.28228e-15)
(13.4723 -5.46194 1.05424e-15)
(14.9 -5.55118 1.73897e-15)
(16.1499 -5.51723 1.12062e-15)
(17.2526 -5.4077 1.42695e-15)
(18.2406 -5.2515 9.4669e-16)
(19.145 -5.06815 0)
(19.9876 -4.86041 0)
(20.7866 -4.6298 -1.29975e-15)
(21.5528 -4.36685 -5.90622e-17)
(22.2875 -4.05759 8.66237e-16)
(22.9598 -3.67699 -5.89907e-16)
(23.5021 -3.22513 2.72648e-17)
(23.897 -2.74548 0)
(24.175 -2.27773 7.73605e-17)
(24.3721 -1.77844 0)
(24.5037 -1.18113 0)
(24.5699 -0.513059 -9.68359e-18)
(24.5504 0.159842 0)
(24.4305 0.789602 1.17438e-16)
(24.2114 1.3536 1.62005e-16)
(23.9018 1.84542 4.60184e-16)
(23.5017 2.26734 1.22132e-16)
(23.0077 2.62726 -1.09079e-18)
(22.3174 2.92666 0)
(21.3672 3.1342 4.09236e-15)
(18.7647 3.31174 7.81354e-15)
(7.15395 23.9923 -8.25519e-18)
(9.04435 25.7193 -2.39791e-19)
(11.3477 27.2835 0)
(14.0034 28.58 0)
(16.8651 29.5493 -1.31551e-16)
(19.9374 30.1312 -3.13387e-16)
(23.108 30.2789 0)
(26.2441 30.014 0)
(29.292 29.346 6.71035e-16)
(32.1687 28.327 0)
(34.8181 27.0096 2.48061e-15)
(37.2334 25.4924 0)
(39.4232 23.8655 8.8262e-16)
(41.3993 22.1613 -8.6671e-16)
(43.1487 20.4109 1.73706e-15)
(44.6308 18.6527 -3.4507e-15)
(45.8266 16.9102 3.65762e-15)
(46.6992 15.2126 3.3237e-15)
(47.1875 13.5671 3.22841e-15)
(47.1791 11.9782 1.96077e-16)
(46.4799 10.3966 -3.35551e-15)
(44.861 8.72368 3.29751e-15)
(42.1804 6.82158 -1.98429e-16)
(38.6431 4.75772 0)
(35.112 2.86641 0)
(31.96 1.34612 0)
(29.1586 0.240549 1.94853e-16)
(26.7754 -0.549953 -4.26453e-17)
(24.92 -1.15029 2.6164e-15)
(23.5677 -1.62207 2.67206e-17)
(22.5409 -1.99169 -1.98934e-17)
(21.6152 -2.27806 -7.64985e-17)
(20.6916 -2.50252 5.28765e-15)
(19.6858 -2.67128 -8.45487e-15)
(18.5073 -2.7695 -4.35848e-17)
(17.119 -2.77947 -8.9422e-15)
(15.1491 -2.63254 0)
(13.0639 -2.36441 -6.75878e-16)
(7.02282 -1.47009 5.60209e-15)
(5.55902 22.1531 1.08832e-17)
(4.17397 20.1084 -4.96822e-17)
(2.96018 17.7146 -6.03029e-16)
(2.0396 14.9944 7.47457e-16)
(1.5918 12.0367 0)
(1.70558 8.98109 -1.63518e-15)
(2.40265 6.03979 -1.2317e-15)
(3.5877 3.43888 -9.54525e-15)
(5.08028 1.14185 2.75915e-15)
(6.84373 -0.758229 -1.99585e-15)
(8.73746 -2.1244 2.45878e-15)
(10.5866 -3.01234 -6.89887e-16)
(12.3097 -3.54996 0)
(13.8829 -3.83702 -4.51392e-16)
(15.3008 -3.95452 5.98235e-17)
(16.5749 -3.95473 -9.96381e-16)
(17.7215 -3.88207 0)
(18.7646 -3.76161 0)
(19.7282 -3.6112 -1.02446e-16)
(20.6353 -3.42809 9.8731e-17)
(21.5012 -3.20995 -1.15949e-15)
(22.3382 -2.93941 -1.24679e-16)
(23.1483 -2.59509 5.46885e-17)
(23.9088 -2.13663 5.93201e-16)
(24.5677 -1.57144 -4.03853e-16)
(25.099 -0.963324 -2.86725e-16)
(25.5135 -0.336454 0)
(25.8055 0.27377 0)
(25.967 0.821306 0)
(26.0005 1.28865 9.6499e-18)
(25.935 1.684 0)
(25.7971 2.03013 0)
(25.5971 2.3467 -2.38454e-16)
(25.3362 2.64221 -1.32108e-16)
(25.0049 2.92011 -1.0017e-16)
(24.6045 3.18329 4.74288e-16)
(24.0359 3.42892 -1.81112e-15)
(23.4731 3.64811 -3.20839e-15)
(21.4976 3.71657 -5.38332e-15)
(8.30381 22.0997 -1.75028e-18)
(9.64535 23.6254 9.23627e-18)
(11.2778 25.1114 -8.39566e-18)
(13.1539 26.4854 -3.81786e-17)
(15.2214 27.6287 -1.72401e-16)
(17.4794 28.518 6.02753e-16)
(19.8536 29.1144 -4.22631e-16)
(22.2694 29.3803 -4.98582e-16)
(24.6698 29.3158 8.78036e-18)
(26.9969 28.9329 -6.56952e-16)
(29.1975 28.2514 6.1414e-16)
(31.2377 27.2963 -1.59939e-15)
(33.0901 26.0977 -7.60995e-16)
(34.7378 24.6883 0)
(36.179 23.1023 -1.8469e-15)
(37.4728 21.3507 3.69234e-15)
(38.6497 19.4639 0)
(39.7296 17.498 -6.94235e-15)
(40.7729 15.5026 -3.43259e-15)
(41.8252 13.5514 3.95364e-16)
(42.9476 11.6857 -3.80395e-16)
(44.0594 9.8937 -1.72984e-16)
(44.8713 8.03531 -2.44741e-15)
(44.9382 6.02648 1.27717e-15)
(44.1672 4.02946 0)
(42.8122 2.28432 1.22307e-15)
(41.0973 0.902586 -1.46148e-16)
(39.0736 -0.183061 0)
(36.6978 -1.07318 1.92436e-15)
(34.0095 -1.80064 3.55732e-15)
(31.2189 -2.36355 -6.16922e-15)
(28.6126 -2.76906 -5.15591e-15)
(26.3427 -3.03937 -1.02123e-16)
(24.3393 -3.19779 -6.74897e-15)
(22.4119 -3.25676 -5.15919e-15)
(20.4313 -3.21341 6.98934e-15)
(18.0247 -3.02194 0)
(15.5366 -2.65272 -4.56146e-16)
(9.73841 -1.88338 -7.75042e-15)
(7.20963 20.4925 -1.62878e-17)
(6.25004 18.7378 -6.06043e-17)
(5.45268 16.6726 2.42028e-16)
(4.81237 14.3622 0)
(4.4842 11.8813 4.63121e-16)
(4.51381 9.29939 0)
(4.92875 6.7536 3.51328e-15)
(5.69823 4.40205 2.07056e-15)
(6.78419 2.2967 1.79748e-15)
(8.13894 0.507248 0)
(9.63651 -0.905585 -2.51751e-15)
(11.1564 -1.96301 -5.30854e-16)
(12.6271 -2.72628 2.38441e-15)
(14.0131 -3.25345 0)
(15.2976 -3.59509 -1.09291e-15)
(16.4787 -3.7945 -3.28723e-16)
(17.5627 -3.88966 1.34853e-15)
(18.5631 -3.90677 6.96342e-16)
(19.497 -3.86401 1.89879e-16)
(20.3814 -3.76665 -1.03622e-16)
(21.2291 -3.6168 1.06209e-15)
(22.0489 -3.40625 0)
(22.8409 -3.12155 0)
(23.5858 -2.7423 2.65124e-17)
(24.2405 -2.28355 0)
(24.7806 -1.79447 5.97775e-16)
(25.2165 -1.29722 -7.60871e-18)
(25.5617 -0.796783 -3.15641e-17)
(25.8216 -0.289634 0)
(25.9965 0.226062 -1.00661e-18)
(26.0885 0.75003 -8.86318e-18)
(26.0991 1.2719 0)
(26.028 1.7735 1.06102e-16)
(25.8751 2.23925 0)
(25.6309 2.66169 0)
(25.2955 3.0392 4.30924e-17)
(24.7698 3.37352 -6.08718e-17)
(24.1693 3.62611 3.36026e-15)
(22.3696 3.72739 1.07647e-14)
(10.905 20.2244 -1.30581e-17)
(12.1614 21.5194 -1.07172e-17)
(13.6681 22.7806 -1.74663e-19)
(15.4018 23.9338 -6.17143e-18)
(17.3162 24.8886 0)
(19.4176 25.6263 0)
(21.65 26.1028 -7.01418e-16)
(23.9531 26.2832 8.46884e-16)
(26.2804 26.1595 0)
(28.5767 25.7336 -1.03586e-15)
(30.791 25.0184 -1.32203e-15)
(32.8838 24.0371 -1.24815e-15)
(34.8196 22.8239 1.49517e-15)
(36.5717 21.416 1.41121e-15)
(38.1296 19.8462 0)
(39.4537 18.1664 2.23657e-15)
(40.4986 16.4346 7.65926e-16)
(41.2603 14.6875 6.17868e-15)
(41.7488 12.9621 3.73101e-16)
(42.0124 11.2931 -3.66954e-16)
(42.1493 9.70729 3.10177e-15)
(42.3132 8.19888 -5.04343e-16)
(42.6084 6.68406 2.78068e-15)
(42.8882 5.07457 1.1763e-15)
(42.8479 3.43645 -7.25678e-17)
(42.3981 1.95677 -1.0952e-15)
(41.7003 0.74253 7.97501e-18)
(40.9058 -0.25396 -8.05409e-18)
(39.9986 -1.12323 -1.77722e-15)
(38.8192 -1.89615 -4.64157e-17)
(37.1774 -2.55661 2.89699e-15)
(34.9691 -3.07714 -4.81764e-15)
(32.2963 -3.4398 -3.77288e-15)
(29.4569 -3.64616 -3.0733e-18)
(26.6829 -3.70879 4.56035e-15)
(24.0049 -3.63035 0)
(21.0743 -3.39192 3.24103e-15)
(18.0878 -2.9098 3.70795e-16)
(12.3189 -2.20185 3.10858e-15)
(9.84986 18.8697 -2.98049e-17)
(8.90317 17.4008 8.13687e-17)
(8.07697 15.6681 3.52413e-16)
(7.38579 13.711 0)
(6.96047 11.5991 -4.08871e-16)
(6.83597 9.3807 0)
(7.03836 7.15955 -2.71556e-15)
(7.54196 5.05824 -1.18506e-16)
(8.32464 3.13443 1.28661e-15)
(9.35356 1.45262 1.12286e-15)
(10.5377 0.0660331 3.7925e-17)
(11.7926 -1.01957 1.86395e-15)
(13.0582 -1.83597 -1.19693e-15)
(14.2937 -2.42409 3.79251e-16)
(15.4739 -2.82326 1.28651e-15)
(16.5865 -3.07257 1.41041e-15)
(17.6289 -3.20614 -1.25872e-15)
(18.6051 -3.25103 7.61246e-18)
(19.525 -3.22692 0)
(20.3999 -3.14325 1.29767e-15)
(21.2393 -3.00324 6.3004e-17)
(22.0491 -2.80141 -9.65272e-16)
(22.8287 -2.52653 0)
(23.5615 -2.16106 2.66997e-17)
(24.2117 -1.71068 0)
(24.7554 -1.21289 -2.87399e-16)
(25.1975 -0.69076 0)
(25.549 -0.155344 3.01252e-17)
(25.8149 0.382867 -8.02448e-19)
(25.9979 0.908833 3.99205e-19)
(26.1032 1.40673 8.53687e-18)
(26.1373 1.86089 1.83649e-19)
(26.1041 2.26812 0)
(26.0052 2.63153 3.03959e-17)
(25.8311 2.95787 1.09511e-18)
(25.5777 3.25145 -5.74428e-16)
(25.1463 3.52035 4.3161e-15)
(24.6142 3.69605 1.07693e-17)
(22.9849 3.75934 0)
(12.4356 18.8256 -1.81863e-17)
(13.4919 19.975 -3.63541e-18)
(14.7658 21.117 -1.57156e-19)
(16.2229 22.1895 1.26505e-16)
(17.8231 23.1098 -4.75825e-17)
(19.5872 23.8732 -1.84416e-16)
(21.4685 24.4402 3.00692e-16)
(23.4199 24.7753 0)
(25.4109 24.8686 1.19528e-15)
(27.395 24.7135 5.58955e-16)
(29.331 24.3115 0)
(31.1841 23.6743 1.20184e-15)
(32.9202 22.8211 -6.38208e-16)
(34.5125 21.7733 1.78065e-15)
(35.94 20.5547 0)
(37.1823 19.1889 -2.97702e-15)
(38.2516 17.6716 2.79812e-15)
(39.1423 16.0257 -1.65167e-16)
(39.8469 14.2843 0)
(40.3587 12.4938 3.00462e-15)
(40.6838 10.6938 -3.01718e-15)
(40.8485 8.91487 -1.56299e-16)
(40.8956 7.14916 -2.39235e-15)
(40.8179 5.39076 -2.26591e-15)
(40.5226 3.71119 0)
(39.971 2.231 0)
(39.2737 1.00757 -2.58073e-16)
(38.5779 -0.0080327 -2.85307e-17)
(37.9466 -0.895728 1.75374e-15)
(37.3593 -1.69022 -4.59961e-17)
(36.7506 -2.39463 4.56947e-17)
(35.9827 -3.00517 4.70031e-15)
(34.8198 -3.50405 0)
(33.0171 -3.85305 1.21024e-14)
(30.5257 -4.01648 -3.9526e-17)
(27.589 -3.97636 0)
(24.2472 -3.73115 -1.64714e-17)
(20.7883 -3.16232 0)
(14.9249 -2.46992 -2.69104e-15)
(11.5428 17.6297 2.95411e-17)
(10.7393 16.3463 -1.86015e-16)
(10.0176 14.8316 -4.40323e-17)
(9.38608 13.124 8.20646e-16)
(8.9607 11.2879 -1.29553e-15)
(8.76623 9.3514 -1.69286e-15)
(8.83377 7.39032 2.05661e-15)
(9.15435 5.50431 -2.18997e-15)
(9.71853 3.75575 -9.71635e-16)
(10.5023 2.19691 -8.55899e-16)
(11.4407 0.86853 1.64204e-15)
(12.471 -0.216334 -1.56776e-15)
(13.5452 -1.07518 -6.83552e-16)
(14.6254 -1.73503 6.64658e-16)
(15.6841 -2.22166 -1.43719e-15)
(16.7052 -2.56474 2.64038e-16)
(17.6806 -2.79059 0)
(18.6082 -2.92145 -9.94434e-16)
(19.4922 -2.974 3.51317e-16)
(20.3393 -2.95803 -1.3609e-15)
(21.1556 -2.87699 0)
(21.9449 -2.72764 8.39765e-16)
(22.7052 -2.50189 6.57715e-16)
(23.4217 -2.18892 -4.92191e-16)
(24.0639 -1.79482 0)
(24.6086 -1.35144 -3.15886e-16)
(25.0564 -0.88403 0)
(25.4161 -0.405349 0)
(25.6917 0.0752282 0)
(25.8851 0.547582 2.40869e-17)
(26.0001 1.0035 0)
(26.0419 1.44299 0)
(26.0147 1.86612 -1.47494e-17)
(25.9218 2.26936 -3.06083e-17)
(25.7576 2.6495 0)
(25.5242 3.00245 -6.74377e-16)
(25.1357 3.32882 8.45668e-17)
(24.6771 3.54896 0)
(23.3014 3.661 -5.39121e-15)
(13.9267 17.5917 2.23103e-17)
(14.8865 18.6088 -1.58406e-17)
(16.0396 19.6252 0)
(17.3538 20.5825 8.92742e-18)
(18.7905 21.4074 -1.12281e-16)
(20.3794 22.1003 1.73277e-16)
(22.0803 22.6231 4.66066e-17)
(23.8553 22.9437 -7.50202e-16)
(25.6837 23.0488 -9.48898e-17)
(27.5275 22.9271 1.1411e-15)
(29.3511 22.5746 -4.07715e-16)
(31.125 21.9943 9.25262e-16)
(32.8157 21.1968 4.64861e-16)
(34.3952 20.1966 3.34532e-16)
(35.8391 19.0125 0)
(37.1278 17.6657 -6.44632e-16)
(38.2343 16.1964 -1.41285e-15)
(39.1311 14.6553 -5.18317e-15)
(39.8079 13.0823 1.52845e-15)
(40.2721 11.5068 -1.93105e-15)
(40.5417 9.94902 -3.0127e-16)
(40.6417 8.40649 0)
(40.5816 6.84785 2.15115e-15)
(40.3343 5.25415 1.39376e-16)
(39.8531 3.68834 -6.48731e-17)
(39.14 2.26996 -9.25895e-16)
(38.2853 1.07389 2.14966e-16)
(37.4046 0.0776767 4.48569e-16)
(36.557 -0.78424 -1.67454e-15)
(35.7529 -1.54819 -8.90416e-17)
(35.0006 -2.2221 2.83822e-15)
(34.3241 -2.81043 4.55688e-15)
(33.7077 -3.31763 0)
(33.0174 -3.73741 -1.92345e-17)
(31.9166 -4.03418 -4.5791e-15)
(30.0273 -4.13074 0)
(27.086 -3.96963 -5.9067e-15)
(23.5157 -3.38273 0)
(17.5857 -2.71571 2.41968e-15)
(13.107 16.5371 -2.94459e-17)
(12.3658 15.4123 7.54558e-17)
(11.6863 14.081 -1.87396e-16)
(11.0782 12.5764 0)
(10.644 10.9597 5.50528e-16)
(10.3999 9.24905 2.76884e-15)
(10.3732 7.50027 0)
(10.5651 5.80008 -1.57074e-15)
(10.9701 4.21071 -1.49451e-15)
(11.5678 2.77121 1.49305e-15)
(12.3122 1.51454 -5.94279e-17)
(13.1562 0.457815 6.46824e-16)
(14.0634 -0.407415 3.37049e-17)
(15.0016 -1.09774 1.69861e-15)
(15.945 -1.62895 1.51946e-15)
(16.8762 -2.02233 -1.42437e-15)
(17.7842 -2.2978 1.99988e-16)
(18.6627 -2.47364 -3.71991e-16)
(19.5108 -2.56454 1.72294e-16)
(20.331 -2.58038 9.99003e-16)
(21.1259 -2.52571 1.29331e-16)
(21.8966 -2.39966 -9.28208e-17)
(22.6397 -2.19656 -5.58251e-16)
(23.3417 -1.90896 0)
(23.9761 -1.54127 2.25868e-17)
(24.5208 -1.1188 5.91199e-16)
(24.973 -0.664954 -2.95927e-18)
(25.3388 -0.192138 2.96292e-18)
(25.6213 0.290654 0)
(25.8222 0.772908 -2.2754e-17)
(25.9447 1.24529 0)
(25.9938 1.69806 0)
(25.9733 2.12131 1.30755e-17)
(25.8861 2.50901 9.79291e-17)
(25.7266 2.85961 0)
(25.4952 3.16976 6.40221e-16)
(25.1127 3.44514 -4.49757e-15)
(24.6513 3.59202 2.18544e-17)
(23.4323 3.62879 5.15428e-15)
(15.126 16.5486 4.05082e-19)
(15.9878 17.4619 -1.50604e-17)
(17.0228 18.3823 5.88233e-18)
(18.1971 19.2552 -5.71099e-18)
(19.4723 20.0152 7.69269e-17)
(20.8834 20.6687 0)
(22.3938 21.1825 -3.33193e-16)
(23.9714 21.5274 6.57056e-18)
(25.6037 21.6923 -3.41258e-16)
(27.2582 21.6653 -6.91595e-16)
(28.9064 21.4394 0)
(30.5241 21.0143 -1.67948e-15)
(32.081 20.3949 -1.44631e-15)
(33.5502 19.5906 -3.52728e-15)
(34.908 18.6156 0)
(36.1301 17.4894 -2.19368e-15)
(37.1971 16.2325 -2.30311e-15)
(38.1009 14.8546 2.44964e-15)
(38.8327 13.3785 -2.40465e-15)
(39.3886 11.8369 2.22923e-15)
(39.7731 10.2616 2.7518e-16)
(39.9941 8.67745 -2.36604e-15)
(40.0491 7.08563 0)
(39.9014 5.48693 -2.102e-15)
(39.502 3.93384 1.2634e-16)
(38.8529 2.5221 9.64781e-16)
(38.0324 1.31665 0)
(37.1405 0.30352 -3.29344e-17)
(36.2277 -0.57276 7.11898e-17)
(35.2965 -1.34521 2.74323e-15)
(34.3475 -2.02025 -2.54351e-15)
(33.407 -2.60133 -4.40594e-15)
(32.5178 -3.09382 3.71487e-15)
(31.7345 -3.50189 -6.43251e-17)
(31.0435 -3.82243 4.70674e-15)
(30.2509 -4.01992 6.08573e-15)
(28.613 -4.0092 3.08163e-15)
(25.8274 -3.51155 -8.02422e-18)
(20.1991 -2.92696 -2.98693e-18)
(14.3842 15.6039 1.18828e-17)
(13.7103 14.6026 1.45426e-16)
(13.0802 13.4153 1.95965e-16)
(12.5035 12.0724 -3.73364e-16)
(12.0724 10.6324 -1.48471e-15)
(11.7992 9.10498 4.94203e-16)
(11.7087 7.53176 1.25755e-15)
(11.8083 5.99135 3.17814e-15)
(12.095 4.54394 1.27371e-15)
(12.5513 3.2176 -1.19111e-15)
(13.1432 2.03937 -3.87594e-17)
(13.8349 1.02659 -5.72613e-16)
(14.5985 0.174558 0)
(15.4083 -0.527177 -2.71174e-17)
(16.2414 -1.08798 -9.30301e-16)
(17.0817 -1.52286 4.0565e-16)
(17.9171 -1.8462 -3.9843e-16)
(18.7389 -2.07167 0)
(19.543 -2.21084 6.02776e-16)
(20.3284 -2.27223 -1.05005e-15)
(21.0949 -2.25989 0)
(21.8413 -2.17375 7.68112e-16)
(22.5631 -2.00988 0)
(23.2474 -1.76357 -2.86674e-17)
(23.8712 -1.43908 2.8607e-17)
(24.4131 -1.05727 -2.89599e-16)
(24.8679 -0.640094 -5.36982e-18)
(25.2389 -0.200993 -3.05989e-18)
(25.5288 0.249871 6.74092e-19)
(25.7385 0.7013 -3.68106e-17)
(25.8708 1.14251 -4.33592e-17)
(25.93 1.56551 5.27953e-17)
(25.9195 1.96678 1.20779e-18)
(25.8417 2.34277 3.26125e-17)
(25.6907 2.69199 0)
(25.4658 3.00999 1.37657e-17)
(25.0933 3.29801 2.10723e-15)
(24.6336 3.46062 -1.27922e-17)
(23.5071 3.50382 4.79371e-15)
(16.1811 15.63 4.47393e-18)
(16.9712 16.4539 2.27737e-17)
(17.9185 17.2878 0)
(18.9894 18.0804 -2.57831e-17)
(20.1454 18.7725 2.54527e-17)
(21.4244 19.3744 0)
(22.7932 19.8551 -1.23008e-16)
(24.2239 20.1887 9.70738e-16)
(25.7097 20.365 -1.35081e-15)
(27.2238 20.3715 4.30776e-16)
(28.7429 20.1993 5.88703e-16)
(30.2477 19.8446 2.13305e-15)
(31.7122 19.3074 1.53028e-15)
(33.112 18.5914 1.82883e-15)
(34.4237 17.7049 4.84587e-16)
(35.6236 16.6607 1.6079e-15)
(36.6916 15.4745 2.21456e-15)
(37.6061 14.1755 2.10144e-15)
(38.3493 12.7986 -1.54161e-15)
(38.9156 11.3728 -4.70962e-15)
(39.3089 9.92148 0)
(39.5393 8.45712 8.67431e-17)
(39.6105 6.97778 1.86702e-15)
(39.4994 5.48359 2.00132e-15)
(39.1651 4.01652 -1.15599e-16)
(38.6004 2.6588 -8.5915e-16)
(37.8631 1.47453 6.17483e-18)
(37.037 0.463209 -4.3988e-16)
(36.1682 -0.416926 4.65613e-17)
(35.2569 -1.1937 -5.09965e-15)
(34.2933 -1.87167 -9.10657e-18)
(33.2799 -2.45127 -6.92139e-17)
(32.229 -2.93479 -3.56751e-15)
(31.1764 -3.3237 -6.36676e-17)
(30.1755 -3.61542 -4.52542e-15)
(29.3623 -3.79839 -1.23145e-14)
(28.5108 -3.85064 3.18475e-15)
(27.1015 -3.48949 4.02348e-16)
(22.4591 -3.06427 2.14555e-15)
(15.4962 14.7793 -5.27822e-17)
(14.8723 13.8813 -1.96838e-16)
(14.2801 12.8145 -1.42063e-16)
(13.7295 11.6058 -3.62687e-16)
(13.3039 10.3121 8.23944e-16)
(13.0123 8.93628 -5.93983e-17)
(12.8778 7.51063 -3.11121e-15)
(12.9103 6.10861 -1.07951e-15)
(13.1079 4.7866 1.70426e-17)
(13.4558 3.56428 0)
(13.9274 2.46461 -1.00804e-15)
(14.4947 1.50387 9.40746e-16)
(15.1365 0.678671 -9.06522e-16)
(15.8326 -0.0178848 -4.64496e-16)
(16.5639 -0.590793 3.87849e-16)
(17.3167 -1.05034 3.85928e-16)
(18.0793 -1.40597 1.38479e-15)
(18.842 -1.66704 -3.28158e-16)
(19.5989 -1.84204 -5.59021e-16)
(20.3465 -1.93775 0)
(21.0821 -1.95757 -8.50937e-16)
(21.8026 -1.9019 -6.32982e-16)
(22.5022 -1.76802 -1.33138e-17)
(23.1686 -1.55318 -6.83897e-17)
(23.7808 -1.26129 -2.2012e-17)
(24.3185 -0.909136 3.36517e-16)
(24.7744 -0.516718 -6.26665e-18)
(25.1495 -0.0976471 5.01377e-17)
(25.4453 0.337751 8.43824e-18)
(25.6624 0.778519 3.33929e-17)
(25.8026 1.21416 -1.27459e-17)
(25.8697 1.63647 -1.27428e-16)
(25.8665 2.03745 -1.21879e-16)
(25.7955 2.41089 -1.17385e-16)
(25.6507 2.75341 -6.97794e-18)
(25.4316 3.05764 4.2372e-18)
(25.0689 3.32356 -2.15542e-15)
(24.6199 3.44653 -3.21459e-15)
(23.5732 3.43478 -4.41466e-15)
(17.092 14.8183 -1.37279e-17)
(17.8198 15.5664 -8.52312e-18)
(18.6912 16.3265 -2.12748e-17)
(19.6724 17.0507 6.83413e-18)
(20.7254 17.6846 4.9314e-17)
(21.8889 18.2414 -1.39673e-16)
(23.1323 18.6935 4.62157e-16)
(24.4306 19.0174 0)
(25.781 19.2055 4.10843e-16)
(27.1605 19.2458 1.23284e-17)
(28.5503 19.1294 -5.03927e-16)
(29.9356 18.8511 -1.96196e-15)
(31.2938 18.4088 -7.98325e-16)
(32.6034 17.8031 0)
(33.8429 17.0389 0)
(34.9894 16.1254 0)
(36.0213 15.0775 0)
(36.9204 13.9115 -2.04594e-15)
(37.6728 12.6452 2.01573e-15)
(38.2687 11.3017 1.97247e-15)
(38.705 9.90584 -1.59107e-15)
(38.9826 8.47908 1.40185e-15)
(39.0986 7.03323 -1.46296e-15)
(39.035 5.57988 -1.08015e-16)
(38.7615 4.15652 -5.04887e-17)
(38.2721 2.82942 8.64914e-16)
(37.6129 1.65487 1.86972e-16)
(36.8564 0.639349 0)
(36.0476 -0.248882 0)
(35.1916 -1.03423 4.17494e-17)
(34.2796 -1.72123 0)
(33.308 -2.30934 3.76912e-15)
(32.2724 -2.79891 -3.34408e-15)
(31.1718 -3.18743 -5.37021e-15)
(30.0013 -3.46789 8.43614e-15)
(28.8602 -3.62187 5.964e-15)
(27.8176 -3.64103 -3.17821e-15)
(27.2406 -3.33352 -8.55481e-16)
(23.9941 -3.08638 -2.16316e-15)
(16.4572 14.0468 0)
(15.8772 13.2353 5.49781e-17)
(15.3195 12.2692 2.69612e-16)
(14.7938 11.1733 -1.1664e-15)
(14.377 10.0023 1.02949e-15)
(14.0746 8.75404 -8.27149e-16)
(13.9097 7.45411 9.66902e-18)
(13.8931 6.17255 8.165e-16)
(14.0229 4.96108 8.63305e-16)
(14.2869 3.83382 0)
(14.6633 2.81014 4.14778e-16)
(15.1292 1.90492 -1.26809e-15)
(15.6685 1.11491 2.00931e-15)
(16.2653 0.434889 3.65823e-16)
(16.9044 -0.137948 -7.4468e-16)
(17.5746 -0.610473 -6.93352e-16)
(18.2654 -0.98861 -6.37186e-16)
(18.9676 -1.27827 0)
(19.6744 -1.48503 0)
(20.3805 -1.61358 0)
(21.0817 -1.66635 7.93702e-16)
(21.7731 -1.64353 0)
(22.4481 -1.54307 -5.11618e-16)
(23.0946 -1.36344 -6.55098e-17)
(23.6931 -1.1082 -3.91205e-16)
(24.2245 -0.79113 -2.9557e-16)
(24.6796 -0.430249 0)
(25.0576 -0.0392457 -4.13305e-17)
(25.3587 0.371187 -8.88811e-18)
(25.5829 0.789911 1.64823e-18)
(25.7315 1.20604 1.13908e-16)
(25.8074 1.61032 -2.1691e-17)
(25.8132 1.99637 1.1707e-16)
(25.7508 2.35839 -1.72621e-16)
(25.6142 2.69278 0)
(25.4025 2.99155 -1.34903e-17)
(25.0509 3.25235 -5.14671e-17)
(24.6141 3.37065 3.04466e-15)
(23.6447 3.34525 -2.59193e-17)
(17.8937 14.091 1.59757e-17)
(18.5696 14.7731 0)
(19.3777 15.468 6.02616e-17)
(20.2844 16.1307 -2.52663e-17)
(21.2522 16.7108 -3.06631e-17)
(22.32 17.2236 1.30673e-16)
(23.459 17.6437 -2.03223e-16)
(24.6465 17.9507 -2.473e-16)
(25.8825 18.1381 0)
(27.1472 18.1949 -4.3427e-16)
(28.4256 18.1123 -4.66452e-16)
(29.7064 17.8846 4.63359e-16)
(30.9705 17.5077 1.73555e-15)
(32.1997 16.9792 6.9774e-16)
(33.3748 16.3008 -2.11811e-15)
(34.474 15.478 -1.53249e-15)
(35.4767 14.5204 1.21275e-15)
(36.3642 13.4417 8.96927e-16)
(37.1183 12.2637 -4.40596e-16)
(37.7258 11.0099 4.41379e-16)
(38.1806 9.70193 1.11904e-15)
(38.4808 8.3576 2.08392e-16)
(38.6224 6.98871 -1.99585e-16)
(38.5908 5.60842 -1.33943e-15)
(38.3629 4.24936 0)
(37.9325 2.96728 -7.24469e-16)
(37.3358 1.81427 -3.48755e-16)
(36.6345 0.803949 -3.21977e-16)
(35.8721 -0.0855839 -1.19205e-15)
(35.0587 -0.874646 4.47064e-15)
(34.1907 -1.56733 1.84336e-15)
(33.267 -2.16266 5.88186e-18)
(32.2841 -2.66025 4.11512e-17)
(31.2345 -3.05632 0)
(30.0871 -3.341 -3.94585e-15)
(28.861 -3.48973 0)
(27.4792 -3.4814 0)
(26.8403 -3.13452 4.41815e-16)
(24.7092 -2.99207 4.38509e-18)
(17.3011 13.3878 -5.38854e-17)
(16.7584 12.6502 1.82855e-16)
(16.2305 11.7706 1.22634e-17)
(15.7277 10.7712 2.58854e-16)
(15.3212 9.70481 -9.34753e-16)
(15.0135 8.56531 6.88087e-16)
(14.8273 7.37397 3.5361e-17)
(14.7743 6.19795 -6.76296e-16)
(14.8523 5.08418 -6.63335e-16)
(15.0508 4.04295 -7.07255e-16)
(15.3512 3.09108 -1.40444e-15)
(15.7346 2.24189 0)
(16.1881 1.49156 -7.2216e-16)
(16.6991 0.835513 -2.55805e-17)
(17.2558 0.272289 0)
(17.8494 -0.203124 -6.0906e-16)
(18.4714 -0.593969 -2.90543e-16)
(19.1133 -0.903551 -2.73751e-16)
(19.7686 -1.13496 9.45285e-16)
(20.4311 -1.29079 8.44889e-16)
(21.0954 -1.37204 -8.76436e-17)
(21.7556 -1.3785 6.55302e-16)
(22.4044 -1.30839 1.29529e-16)
(23.0296 -1.16067 -6.26136e-17)
(23.6131 -0.938587 3.46203e-16)
(24.1363 -0.653458 2.11908e-17)
(24.5889 -0.321105 0)
(24.9684 0.0451313 0)
(25.2737 0.434413 -1.74418e-18)
(25.5041 0.835716 4.24246e-18)
(25.6601 1.23805 -1.33384e-16)
(25.7441 1.63213 -2.10696e-17)
(25.758 2.01012 1.88179e-16)
(25.7034 2.36483 1.63308e-16)
(25.5744 2.69147 9.16533e-18)
(25.3701 2.98012 4.36184e-18)
(25.0304 3.22632 3.99224e-15)
(24.6075 3.32285 -2.90228e-15)
(23.7158 3.26759 2.40663e-17)
(18.6019 13.4343 6.12946e-18)
(19.2327 14.0588 0)
(19.986 14.6961 -3.57261e-17)
(20.8283 15.3041 0)
(21.7225 15.8362 -7.25143e-17)
(22.7075 16.3086 7.01864e-17)
(23.7557 16.6983 1.53689e-16)
(24.8464 16.9873 2.3262e-16)
(25.9812 17.1705 0)
(27.1429 17.238 -2.86698e-16)
(28.3194 17.1821 4.76798e-16)
(29.5024 16.9968 -9.79656e-16)
(30.6758 16.677 -5.49041e-16)
(31.8242 16.2193 -5.59829e-16)
(32.9306 15.6231 1.3464e-15)
(33.9754 14.891 1.46043e-15)
(34.939 14.0298 -1.5705e-15)
(35.8025 13.0509 -1.57145e-15)
(36.5489 11.9683 0)
(37.1638 10.8001 4.05437e-16)
(37.6374 9.56605 -7.84823e-16)
(37.9637 8.28546 1.91808e-16)
(38.1358 6.97497 2.59234e-18)
(38.1405 5.65226 3.15909e-15)
(37.9592 4.34715 -1.75029e-16)
(37.5862 3.10561 1.09615e-16)
(37.0493 1.97389 3.21115e-16)
(36.4002 0.969832 3.40376e-16)
(35.6795 0.079857 1.022e-15)
(34.9008 -0.712057 -2.04976e-15)
(34.0644 -1.40923 -1.68313e-15)
(33.1725 -2.01018 -6.6001e-15)
(32.2255 -2.51404 5.67238e-15)
(31.2218 -2.91683 -8.03271e-17)
(30.1334 -3.20862 3.65862e-15)
(28.9714 -3.36171 -1.1173e-16)
(27.5274 -3.35904 6.1123e-17)
(26.519 -2.96183 4.16285e-18)
(24.8892 -2.8214 -1.90358e-15)
(18.0462 12.7907 2.65104e-17)
(17.5363 12.1169 -9.39894e-17)
(17.0354 11.3121 1.85019e-16)
(16.5537 10.3962 0)
(16.1583 9.42021 5.43492e-16)
(15.8494 8.37457 0)
(15.6486 7.27825 0)
(15.5686 6.19517 0)
(15.6067 5.1681 1.22616e-15)
(15.7536 4.20468 -6.05744e-16)
(15.9933 3.31976 6.84983e-16)
(16.3093 2.52535 0)
(16.6909 1.81681 0)
(17.1283 1.18953 -6.20151e-16)
(17.6121 0.642597 0)
(18.1359 0.172182 5.64304e-16)
(18.6929 -0.223627 1.29667e-17)
(19.2762 -0.546057 0)
(19.8797 -0.796137 -6.71876e-16)
(20.4972 -0.974725 -9.95664e-16)
(21.1227 -1.08157 -6.93401e-16)
(21.7497 -1.1157 -6.03311e-16)
(22.3703 -1.07506 1.0338e-15)
(22.9728 -0.958796 0)
(23.5395 -0.769751 3.46567e-16)
(24.0526 -0.517076 3.20167e-16)
(24.5011 -0.214631 1.19443e-16)
(24.8805 0.124797 0)
(25.189 0.490323 -8.8248e-18)
(25.4249 0.870956 -5.25938e-17)
(25.5881 1.25567 1.45918e-16)
(25.6801 1.63465 -2.01632e-17)
(25.7024 2.00006 -1.70114e-16)
(25.6561 2.34447 2.03569e-16)
(25.5354 2.66244 -2.3975e-18)
(25.339 2.9429 9.16529e-18)
(25.012 3.17916 -3.87093e-15)
(24.6035 3.26444 2.68739e-15)
(23.7858 3.19127 6.78692e-15)
(19.2324 12.8367 2.8528e-18)
(19.8238 13.4103 -1.79589e-17)
(20.5292 13.9963 0)
(21.3156 14.555 -1.51415e-17)
(22.1463 15.0434 0)
(23.0596 15.4781 0)
(24.0292 15.8384 1.95705e-17)
(25.0357 16.108 2.01881e-16)
(26.0821 16.2829 4.68093e-16)
(27.1529 16.3548 1.19977e-15)
(28.2385 16.3166 6.80731e-16)
(29.333 16.1626 7.87741e-16)
(30.4228 15.8874 0)
(31.4954 15.4863 1.54092e-15)
(32.5359 14.9572 -5.46856e-16)
(33.5269 14.3004 0)
(34.4502 13.52 1.30847e-15)
(35.2876 12.6238 1.49895e-15)
(36.0219 11.6238 0)
(36.6371 10.5365 1.43737e-15)
(37.1208 9.37993 -1.40747e-15)
(37.4648 8.17206 0)
(37.6607 6.92984 -1.69318e-16)
(37.6965 5.67206 2.88521e-17)
(37.5573 4.42575 8.19667e-17)
(37.2375 3.22936 1.24553e-15)
(36.7575 2.12407 -4.52737e-18)
(36.16 1.13102 -3.33143e-17)
(35.4815 0.244139 -2.78657e-17)
(34.7373 -0.548217 6.18778e-17)
(33.9304 -1.24809 1.68247e-15)
(33.0641 -1.85316 5.9245e-15)
(32.141 -2.36177 4.80271e-17)
(31.1634 -2.76932 -4.27328e-15)
(30.1113 -3.06664 -3.29694e-15)
(29.0095 -3.22283 -4.78073e-15)
(27.6674 -3.23546 -2.70211e-15)
(26.4491 -2.82402 1.97886e-17)
(24.9069 -2.62526 1.81021e-15)
(18.709 12.2456 -6.03415e-17)
(18.2281 11.6277 -2.24724e-16)
(17.7516 10.8883 4.45274e-16)
(17.2898 10.0456 0)
(16.9057 9.14845 8.74118e-16)
(16.5984 8.18498 0)
(16.3881 7.17249 -4.79476e-16)
(16.2878 6.17178 1.92379e-15)
(16.2951 5.22195 -1.48817e-15)
(16.4012 4.32908 0)
(16.592 3.50615 1.10504e-15)
(16.8527 2.76403 1.06956e-15)
(17.1743 2.09749 0)
(17.5488 1.50175 -1.05676e-15)
(17.9687 0.975883 2.55903e-16)
(18.4294 0.516314 -2.56286e-16)
(18.9262 0.122054 2.4971e-16)
(19.4534 -0.20684 4.38867e-16)
(20.0058 -0.469911 -1.63118e-17)
(20.5778 -0.666492 5.32221e-16)
(21.1633 -0.79509 1.57511e-16)
(21.7555 -0.853881 -1.51198e-16)
(22.3466 -0.840473 -4.87704e-16)
(22.9248 -0.75374 4.19839e-16)
(23.4733 -0.595859 -3.0528e-16)
(23.9745 -0.374265 -3.22069e-16)
(24.417 -0.100865 -1.12557e-16)
(24.7951 0.212352 -1.25445e-18)
(25.1055 0.554635 9.6035e-18)
(25.346 0.915205 4.97251e-17)
(25.5156 1.28308 1.05027e-17)
(25.6151 1.64824 -1.93417e-17)
(25.6455 2.00233 2.35418e-16)
(25.6074 2.33703 -2.05911e-16)
(25.4951 2.64594 9.57877e-18)
(25.3071 2.91656 -7.19937e-16)
(24.9937 3.14018 1.86155e-15)
(24.6008 3.21113 0)
(23.854 3.11931 -6.43549e-15)
(19.7963 12.2896 1.00501e-17)
(20.3529 12.8178 0)
(21.0158 13.3579 0)
(21.7528 13.8722 6.91529e-18)
(22.5277 14.321 -2.03606e-17)
(23.3781 14.7209 0)
(24.2786 15.0532 0)
(25.2108 15.3032 -6.58944e-16)
(26.1788 15.4683 -3.3505e-17)
(27.1687 15.541 -4.08273e-17)
(28.1724 15.5151 -1.57222e-15)
(29.186 15.3854 -4.12399e-16)
(30.1981 15.1465 7.87296e-16)
(31.1984 14.7936 -6.72067e-17)
(32.1746 14.3231 0)
(33.111 13.734 0)
(33.9912 13.0281 -3.57922e-15)
(34.7977 12.2109 -6.61796e-16)
(35.5141 11.2913 6.71159e-16)
(36.124 10.2821 -1.39278e-15)
(36.6134 9.19914 2.65095e-15)
(36.9717 8.05979 1.2601e-15)
(37.1891 6.88188 -1.22653e-15)
(37.2542 5.68549 -1.39847e-15)
(37.1544 4.49561 2.23179e-16)
(36.8843 3.34424 -1.21867e-15)
(36.4587 2.26755 -1.38335e-16)
(35.9121 1.28855 3.07683e-17)
(35.2769 0.4073 -3.09519e-17)
(34.5692 -0.38352 1.03477e-16)
(33.7936 -1.08461 -4.31663e-17)
(32.9541 -1.69275 -2.90264e-15)
(32.0538 -2.20521 -1.08331e-16)
(31.0962 -2.61653 1.27229e-16)
(30.0658 -2.91791 0)
(28.9894 -3.07593 4.40958e-15)
(27.7461 -3.09613 2.51151e-15)
(26.5163 -2.69898 0)
(24.9609 -2.43404 0)
(19.3019 11.7451 0)
(18.8468 11.1766 2.00559e-16)
(18.3929 10.495 -6.6441e-16)
(17.9498 9.7171 -3.22217e-16)
(17.5771 8.88939 -7.89524e-16)
(17.2733 7.99843 0)
(17.0572 7.06054 0)
(16.9419 6.1333 -8.56902e-16)
(16.9253 5.25276 8.95893e-16)
(16.9989 4.42373 0)
(17.15 3.65784 -4.66003e-16)
(17.3653 2.96512 -5.0292e-16)
(17.6368 2.33993 4.76218e-16)
(17.9576 1.77694 4.9413e-16)
(18.3218 1.27495 -9.18075e-16)
(18.7263 0.830557 0)
(19.1677 0.443013 -2.07701e-16)
(19.6418 0.113091 1.297e-17)
(20.1447 -0.157836 9.22538e-16)
(20.6715 -0.367947 -1.70907e-16)
(21.2165 -0.514626 1.64177e-16)
(21.7729 -0.595255 -1.25456e-16)
(22.3332 -0.60693 1.7805e-16)
(22.886 -0.548084 -8.48003e-16)
(23.4146 -0.420054 -3.01487e-16)
(23.9023 -0.228684 2.61104e-16)
(24.3371 0.0158549 -1.60305e-17)
(24.7122 0.302533 0)
(25.0234 0.620899 -9.2188e-18)
(25.2676 0.960397 5.44535e-17)
(25.443 1.31016 -7.71441e-17)
(25.5497 1.65996 1.28613e-16)
(25.588 2.00113 -4.80885e-16)
(25.5581 2.3249 5.10107e-16)