/*--------------------------------*- C++ -*----------------------------------*\
| =========                 |                                                 |
| \\      /  F ield         | OpenFOAM: The Open Source CFD Toolbox           |
|  \\    /   O peration     | Version:  2312                                  |
|   \\  /    A nd           | Website:  www.openfoam.com                      |
|    \\/     M anipulation  |                                                 |
\*---------------------------------------------------------------------------*/
FoamFile
{
    version     2.0;
    format      ascii;
    arch        "LSB;label=32;scalar=64";
    class       volScalarField;
    location    "0.01";
    object      epsilon.air;
}
// * * * * * * * * * * * * * * * * * * * * * * * * * * * * * * * * * * * * * //

dimensions      [0 2 -3 0 0 0 0];

internalField   nonuniform List<scalar> 
6000
(
136.848
17.0303
10.5867
9.81448
9.6319
9.57007
9.54406
9.53157
9.52486
9.52084
9.51823
9.51647
9.51529
9.51457
9.51423
9.51423
9.51457
9.51529
9.51646
9.51821
9.52082
9.52484
9.53155
9.54404
9.57006
9.63191
9.81449
10.5867
17.0303
136.848
76.6732
22.405
13.2316
10.8787
10.1536
9.87711
9.76562
9.7191
9.69853
9.6884
9.68268
9.67912
9.67682
9.67542
9.67476
9.67476
9.67542
9.67681
9.67909
9.68263
9.68835
9.69848
9.71905
9.7656
9.87712
10.1536
10.8787
13.2316
22.405
76.6733
57.3088
22.7049
14.21
11.2814
10.1437
9.68706
9.50316
9.43076
9.40278
9.39167
9.38678
9.38428
9.38285
9.38202
9.38164
9.38164
9.38202
9.38284
9.38425
9.38674
9.39163
9.40274
9.43073
9.50314
9.68707
10.1437
11.2814
14.21
22.7047
57.3088
51.3855
22.659
14.6919
11.5402
10.1756
9.58284
9.33209
9.23219
9.19488
9.18154
9.17675
9.17486
9.174
9.17359
9.1734
9.1734
9.17358
9.174
9.17485
9.17672
9.18151
9.19485
9.23217
9.33207
9.58282
10.1756
11.5401
14.6918
22.6588
51.3855
49.5659
22.5693
14.859
11.643
10.1812
9.51747
9.22748
9.10957
9.06533
9.0499
9.04474
9.04301
9.04238
9.04214
9.04205
9.04205
9.04215
9.04241
9.04304
9.04476
9.04988
9.06529
9.10953
9.22743
9.51739
10.1811
11.643
14.8589
22.5691
49.5661
48.9042
22.4578
14.8683
11.6489
10.1584
9.46263
9.15374
9.02638
8.97815
8.96133
8.95582
8.95405
8.95346
8.95322
8.95315
8.95318
8.95325
8.95346
8.95407
8.95583
8.9613
8.97812
9.02633
9.15367
9.46252
10.1583
11.6488
14.8682
22.4577
48.9044
48.5579
22.3462
14.8319
11.6215
10.1196
9.41507
9.09933
8.96802
8.91798
8.90045
8.89475
8.89292
8.89232
8.89207
8.89197
8.89194
8.89205
8.89227
8.89287
8.89473
8.90044
8.91797
8.96802
9.09929
9.415
10.1195
11.6214
14.8319
22.3463
48.5579
48.2986
22.2449
14.7737
11.579
10.0813
9.37615
9.05887
8.92639
8.87579
8.858
8.85221
8.85038
8.84976
8.84948
8.84939
8.84936
8.84947
8.84969
8.85029
8.85216
8.858
8.87579
8.92646
9.05887
9.37616
10.0813
11.5789
14.7736
22.245
48.2987
48.0689
22.1573
14.7223
11.5412
10.0492
9.34572
9.02902
8.89655
8.84589
8.82807
8.82225
8.8204
8.81978
8.8194
8.81946
8.81932
8.81955
8.81968
8.82036
8.8222
8.8281
8.84589
8.89652
9.02893
9.3459
10.0492
11.5413
14.7222
22.1573
48.0691
47.8433
22.0798
14.6791
11.5102
10.0234
9.32247
9.00682
8.87473
8.82417
8.80631
8.80058
8.79866
8.79813
8.79785
8.79783
8.79774
8.79778
8.79801
8.79861
8.80071
8.80641
8.8242
8.87464
9.00655
9.32233
10.0234
11.5102
14.679
22.0797
47.8435
47.622
22.0087
14.6421
11.4846
10.0024
9.30385
8.98886
8.85749
8.80701
8.78942
8.78353
8.78165
8.78111
8.78113
8.78091
8.78101
8.78102
8.78125
8.78173
8.78364
8.78931
8.8071
8.85744
8.98898
9.30358
10.0024
11.4844
14.6419
22.0086
47.6223
47.4064
21.9414
14.6093
11.4624
9.98451
9.28793
8.97399
8.843
8.79297
8.77535
8.76972
8.76791
8.76743
8.76727
8.76704
8.76731
8.76729
8.76751
8.76805
8.76967
8.77561
8.79307
8.84335
8.97435
9.288
9.98465
11.4623
14.6092
21.9414
47.4067
47.1976
21.8771
14.5778
11.4421
9.96857
9.27343
8.9607
8.83009
8.78039
8.76319
8.7575
8.7558
8.7553
8.75505
8.75504
8.75488
8.75512
8.75519
8.75596
8.75768
8.76326
8.78075
8.83036
8.96083
9.27399
9.9688
11.4425
14.5782
21.8774
47.1974
46.9947
21.815
14.5459
11.4227
9.95294
9.25999
8.94824
8.81809
8.76871
8.75128
8.7459
8.7443
8.74393
8.74356
8.74388
8.74365
8.74369
8.74376
8.74436
8.74609
8.75161
8.76872
8.8183
8.94828
9.26031
9.95328
11.4228
14.5463
21.8153
46.9941
46.7985
21.7549
14.5137
11.4009
9.93683
9.24598
8.93499
8.80537
8.75599
8.73907
8.73352
8.73188
8.73145
8.73165
8.73159
8.73161
8.73158
8.73171
8.7321
8.73363
8.73903
8.75616
8.80551
8.93516
9.24615
9.93689
11.401
14.5139
21.7551
46.7979
46.6087
21.6968
14.4825
11.3779
9.91809
9.22962
8.91981
8.79128
8.74191
8.72503
8.71953
8.71823
8.71768
8.71765
8.71755
8.71783
8.7179
8.71797
8.71775
8.71915
8.72445
8.74151
8.79069
8.91963
9.22909
9.91745
11.3777
14.4825
21.6967
46.6082
46.4167
21.6406
14.4532
11.3567
9.89982
9.2128
8.90405
8.77571
8.72689
8.70996
8.70468
8.70332
8.70274
8.70265
8.70258
8.70279
8.70269
8.70268
8.70278
8.70402
8.70946
8.72621
8.77513
8.90368
9.21223
9.89932
11.3564
14.453
21.6404
46.4171
46.2236
21.5866
14.4259
11.3379
9.88443
9.19887
8.89069
8.76255
8.71391
8.69704
8.69174
8.69017
8.68971
8.68961
8.68955
8.68959
8.68961
8.68969
8.69008
8.69149
8.69695
8.71371
8.76241
8.8906
9.19871
9.88423
11.3377
14.4257
21.5864
46.2244
46.0355
21.5354
14.4005
11.3208
9.87078
9.18677
8.87918
8.7513
8.70274
8.686
8.68064
8.67903
8.67856
8.67843
8.6784
8.67843
8.67846
8.67861
8.67902
8.68066
8.68594
8.70279
8.7513
8.87915
9.18669
9.87064
11.3207
14.4003
21.5352
46.036
45.8447
21.486
14.3768
11.305
9.85802
9.17545
8.8686
8.74088
8.69247
8.6757
8.67038
8.66879
8.66839
8.66827
8.6682
8.66817
8.66822
8.66836
8.66884
8.67041
8.67572
8.69243
8.74088
8.86856
9.17541
9.85795
11.3049
14.3766
21.4859
45.8452
45.659
21.4384
14.3541
11.2902
9.84617
9.16475
8.8583
8.7308
8.68242
8.66576
8.66044
8.6588
8.65837
8.65813
8.65822
8.65821
8.65824
8.65847
8.65899
8.66071
8.66591
8.68264
8.73088
8.85816
9.16472
9.84619
11.2902
14.3541
21.4384
45.6592
45.4783
21.3914
14.3314
11.2751
9.83477
9.1545
8.84869
8.72143
8.67327
8.65659
8.65132
8.64979
8.64936
8.64923
8.64913
8.64902
8.64919
8.64939
8.64997
8.6515
8.65686
8.67336
8.7215
8.84876
9.15447
9.83485
11.2753
14.3315
21.3915
45.4784
45.304
21.3453
14.3085
11.2592
9.82217
9.14416
8.83875
8.71193
8.66376
8.64721
8.64193
8.64041
8.63992
8.63983
8.63978
8.63986
8.63987
8.64009
8.64071
8.64218
8.6474
8.66396
8.71205
8.83895
9.1444
9.82252
11.2594
14.3087
21.3455
45.3038
45.1337
21.3005
14.286
11.2431
9.80803
9.1322
8.82828
8.70183
8.65378
8.6372
8.63203
8.63061
8.63019
8.63024
8.63023
8.63034
8.63048
8.63036
8.63078
8.63237
8.63751
8.65402
8.70224
8.82886
9.1327
9.80828
11.243
14.2861
21.3007
45.1336
44.9675
21.2571
14.2642
11.2276
9.79448
9.11875
8.81581
8.68947
8.64204
8.62559
8.6205
8.6189
8.61859
8.61844
8.61848
8.61819
8.61788
8.61825
8.61889
8.62038
8.62554
8.64205
8.68946
8.81566
9.11892
9.79438
11.2274
14.2642
21.2571
44.9675
44.8062
21.2152
14.2433
11.213
9.78219
9.10687
8.80355
8.67755
8.63005
8.6136
8.60852
8.60697
8.60663
8.60652
8.60649
8.60636
8.6063
8.60647
8.60693
8.60834
8.61345
8.6299
8.67747
8.80352
9.10687
9.78193
11.2128
14.2432
21.2152
44.8064
44.6455
21.1751
14.2234
11.1992
9.77075
9.0964
8.79336
8.66744
8.61992
8.60351
8.5984
8.59693
8.59658
8.59649
8.59648
8.59639
8.59639
8.59651
8.5969
8.59832
8.60341
8.6198
8.66736
8.79324
9.09624
9.77048
11.1989
14.2232
21.175
44.6455
44.4842
21.1365
14.2045
11.186
9.75985
9.0865
8.7839
8.65825
8.61066
8.59432
8.58921
8.58776
8.5874
8.58732
8.58732
8.58734
8.58733
8.58736
8.58774
8.58918
8.59428
8.61062
8.65824
8.78391
9.08647
9.75965
11.1858
14.2043
21.1364
44.4844
44.3258
21.0993
14.1865
11.1736
9.74944
9.077
8.77476
8.64916
8.60181
8.58552
8.58037
8.57889
8.57856
8.57854
8.57848
8.57835
8.57834
8.57842
8.57887
8.58037
8.58546
8.60184
8.64911
8.77465
9.07686
9.74937
11.1735
14.1864
21.0991
44.3261
44.1738
21.0629
14.169
11.1617
9.73966
9.06816
8.7661
8.64091
8.59319
8.57698
8.57182
8.57044
8.56998
8.56994
8.57002
8.57016
8.57025
8.57032
8.57062
8.57204
8.57716
8.59332
8.64096
8.76627
9.06814
9.73948
11.1617
14.1689
21.0627
44.1741
44.0276
21.0276
14.1515
11.1496
9.73024
9.05937
8.75799
8.63276
8.58528
8.56892
8.56382
8.56238
8.56197
8.56195
8.56187
8.56204
8.5621
8.56227
8.56257
8.56407
8.56911
8.58534
8.63273
8.75787
9.05931
9.72986
11.1499
14.1516
21.0275
44.0278
43.8858
20.9934
14.1343
11.1372
9.72011
9.05082
8.74976
8.62459
8.57722
8.56086
8.55568
8.55425
8.55385
8.55371
8.55379
8.55374
8.55379
8.55386
8.55424
8.55568
8.56091
8.57707
8.62447
8.74955
9.05035
9.72042
11.1376
14.1345
20.9934
43.8857
43.7484
20.9602
14.1175
11.1247
9.70882
9.04068
8.74007
8.61551
8.56821
8.55216
8.54723
8.54569
8.54548
8.54538
8.5451
8.54534
8.54528
8.54504
8.54538
8.54686
8.55172
8.56828
8.61538
8.73991
9.04089
9.70971
11.1251
14.1177
20.9603
43.7481
43.6145
20.9279
14.1012
11.1128
9.69825
9.03029
8.73005
8.60546
8.55841
8.54228
8.53737
8.536
8.53553
8.53554
8.53555
8.5356
8.53564
8.53556
8.53585
8.53719
8.54223
8.55844
8.60561
8.73012
9.03038
9.69847
11.113
14.1013
20.928
43.6143
43.4849
20.8968
14.0855
11.1016
9.68875
9.02136
8.72153
8.59705
8.55008
8.53391
8.52891
8.52751
8.52704
8.52703
8.52702
8.52703
8.52707
8.52708
8.5275
8.52886
8.53394
8.5501
8.59717
8.72156
9.02131
9.6887
11.1017
14.0856
20.8969
43.4847
43.3592
20.8669
14.0705
11.0909
9.6798
9.01315
8.71369
8.58949
8.54247
8.52631
8.52123
8.51978
8.51941
8.51933
8.5193
8.51932
8.51932
8.51942
8.51984
8.52129
8.52636
8.54248
8.58943
8.71372
9.0131
9.67975
11.0909
14.0705
20.867
43.3589
43.2344
20.8384
14.0561
11.0807
9.67112
9.00525
8.70616
8.58198
8.53508
8.51893
8.51385
8.51242
8.51206
8.51197
8.51207
8.51186
8.51192
8.51207
8.51242
8.51392
8.51899
8.53504
8.582
8.70593
9.00522
9.67108
11.0807
14.0561
20.8384
43.2348
43.112
20.811
14.0425
11.0709
9.66282
8.99755
8.69864
8.5747
8.52773
8.51164
8.50657
8.50502
8.50479
8.50468
8.50458
8.50459
8.50454
8.50471
8.50514
8.50663
8.5116
8.52768
8.57447
8.69859
8.99755
9.66279
11.0709
14.0425
20.811
43.1124
42.9952
20.7846
14.0293
11.0616
9.6547
8.99027
8.69173
8.56772
8.52097
8.50474
8.49975
8.49843
8.49804
8.4978
8.49772
8.49768
8.49777
8.49803
8.49825
8.49974
8.5048
8.5209
8.56768
8.69167
8.99032
9.65471
11.0615
14.0293
20.7846
42.9954
42.8833
20.7589
14.0163
11.0522
9.64723
8.98312
8.68484
8.56102
8.51425
8.49807
8.49299
8.49164
8.4912
8.49115
8.49113
8.49123
8.49118
8.49135
8.49167
8.49304
8.49815
8.5142
8.56097
8.68495
8.98323
9.6473
11.0522
14.0162
20.7589
42.8834
42.7751
20.7341
14.0035
11.0428
9.63969
8.97611
8.67792
8.5542
8.5075
8.49153
8.48647
8.48502
8.48466
8.48457
8.4847
8.48452
8.48454
8.48457
8.48496
8.48647
8.49151
8.50762
8.55442
8.67793
8.97617
9.63988
11.0428
14.0035
20.7341
42.7753
42.6708
20.7103
13.9913
11.0336
9.63158
8.96897
8.67083
8.54728
8.50062
8.48478
8.47977
8.47827
8.47794
8.47796
8.47782
8.47796
8.47786
8.47776
8.47824
8.47986
8.4848
8.50084
8.54757
8.67113
8.96881
9.63106
11.0335
13.9912
20.7103
42.671
42.5698
20.6872
13.9793
11.0246
9.62329
8.96109
8.6639
8.54057
8.49393
8.47792
8.47276
8.4713
8.4711
8.471
8.47092
8.47077
8.47093
8.47106
8.47132
8.4727
8.47782
8.4937
8.54025
8.66368
8.96109
9.62323
11.0246
13.9793
20.6872
42.5699
42.4723
20.665
13.9679
11.0162
9.61597
8.95425
8.65708
8.5338
8.48725
8.47124
8.46621
8.46478
8.46442
8.46434
8.46431
8.46425
8.46433
8.46442
8.46477
8.46622
8.47125
8.48719
8.53374
8.65702
8.95428
9.61602
11.0163
13.9679
20.665
42.4724
42.3783
20.6436
13.9569
11.0082
9.60916
8.94799
8.65098
8.52781
8.48124
8.46524
8.46023
8.45882
8.45842
8.45834
8.45832
8.45831
8.45833
8.45845
8.45881
8.46023
8.46526
8.4812
8.52778
8.65096
8.94797
9.60918
11.0082
13.9569
20.6436
42.3784
42.287
20.6232
13.9463
11.0005
9.60268
8.94201
8.64513
8.52205
8.47556
8.45962
8.45466
8.45322
8.45278
8.45263
8.45263
8.45273
8.45274
8.45283
8.45323
8.45458
8.45956
8.47557
8.52209
8.64523
8.94196
9.60262
11.0005
13.9463
20.6232
42.287
42.1978
20.6037
13.9363
10.9932
9.59626
8.93612
8.63951
8.51644
8.46995
8.45389
8.44883
8.44743
8.44709
8.44702
8.44702
8.44698
8.44698
8.44705
8.44746
8.44884
8.45393
8.46981
8.51636
8.63934
8.93596
9.59623
10.9932
13.9363
20.6037
42.1978
42.1127
20.5849
13.9266
10.9859
9.59017
8.93034
8.6339
8.511
8.46455
8.44866
8.4437
8.44219
8.44184
8.44173
8.4417
8.44177
8.44179
8.44189
8.44225
8.4437
8.44859
8.46464
8.51097
8.63397
8.93035
9.59011
10.9861
13.9266
20.5849
42.1128
42.0315
20.5669
13.9173
10.9793
9.58428
8.92485
8.62869
8.50577
8.4595
8.44349
8.43861
8.43709
8.43674
8.43663
8.43669
8.43664
8.43669
8.43667
8.43717
8.43857
8.44361
8.45946
8.50589
8.62866
8.925
9.5843
10.9793
13.9173
20.5669
42.0316
41.9533
20.5496
13.9083
10.9727
9.57863
8.91957
8.62348
8.50084
8.45448
8.43862
8.43366
8.43227
8.43185
8.43171
8.43169
8.43174
8.43172
8.43188
8.43218
8.43361
8.43855
8.45455
8.50085
8.62368
8.91968
9.57871
10.9728
13.9083
20.5496
41.9534
41.8782
20.5331
13.8995
10.9664
9.5731
8.91445
8.61857
8.49583
8.44949
8.43361
8.42858
8.42718
8.42683
8.42678
8.42674
8.42671
8.42669
8.42678
8.42715
8.42862
8.43365
8.44949
8.49582
8.61847
8.91435
9.57315
10.966
13.8995
20.5331
41.8784
41.8062
20.5172
13.891
10.9594
9.56727
8.90931
8.61351
8.49082
8.44448
8.4287
8.42368
8.42228
8.42182
8.42179
8.42179
8.42187
8.42179
8.42194
8.42234
8.42383
8.42871
8.44457
8.49082
8.61344
8.90915
9.56736
10.9594
13.891
20.5172
41.8063
41.7369
20.5018
13.8828
10.9532
9.56174
8.9041
8.60854
8.48596
8.43972
8.42384
8.41889
8.41741
8.41709
8.41695
8.41699
8.41696
8.41699
8.41705
8.41747
8.41889
8.42385
8.43966
8.48598
8.60844
8.904
9.56177
10.9532
13.8828
20.5018
41.7371
41.6705
20.4871
13.875
10.9474
9.55664
8.89927
8.60397
8.4815
8.43529
8.41943
8.41448
8.41304
8.41269
8.41258
8.41258
8.41256
8.41262
8.41267
8.41307
8.41448
8.41944
8.43525
8.48153
8.60391
8.89925
9.55668
10.9474
13.875
20.4871
41.6706
41.6067
20.473
13.8675
10.9418
9.55181
8.89478
8.59964
8.4773
8.43111
8.41528
8.41031
8.40888
8.40852
8.40842
8.4084
8.40839
8.4084
8.40849
8.40886
8.4103
8.41524
8.4311
8.47731
8.59967
8.8948
9.55184
10.9418
13.8675
20.473
41.6068
41.5454
20.4596
13.8603
10.9364
9.54721
8.89047
8.59552
8.47324
8.42709
8.41122
8.40628
8.40487
8.40449
8.40439
8.40438
8.4044
8.40439
8.4045
8.40484
8.40627
8.41121
8.4271
8.47325
8.59559
8.89056
9.54723
10.9364
13.8603
20.4596
41.5454
41.4864
20.4467
13.8535
10.9313
9.54268
8.88629
8.59144
8.46926
8.42307
8.40726
8.40225
8.40088
8.40046
8.4004
8.40036
8.4004
8.4004
8.40048
8.40087
8.40226
8.40721
8.42311
8.46919
8.59148
8.88626
9.54273
10.9313
13.8535
20.4468
41.4865
41.4298
20.4345
13.8469
10.9263
9.53852
8.88229
8.58767
8.46546
8.41939
8.40347
8.39854
8.39715
8.39673
8.39667
8.39665
8.39667
8.39666
8.39679
8.39713
8.39857
8.40355
8.41935
8.46546
8.58762
8.88233
9.53846
10.9264
13.847
20.4345
41.4299
41.376
20.4227
13.8407
10.9217
9.53446
8.8786
8.584
8.46188
8.41577
8.39998
8.39501
8.39356
8.39318
8.39312
8.39307
8.39305
8.39309
8.39319
8.39356
8.39499
8.39994
8.41574
8.46185
8.58398
8.87853
9.53444
10.9216
13.8406
20.4227
41.3761
41.3245
20.4115
13.8346
10.9173
9.53053
8.87487
8.58045
8.45837
8.41231
8.39648
8.39158
8.39011
8.38976
8.38963
8.38965
8.3896
8.38963
8.38973
8.39009
8.39147
8.39649
8.41227
8.45839
8.58044
8.87488
9.53041
10.9172
13.8346
20.4115
41.3246
41.2753
20.4008
13.8287
10.9126
9.52663
8.87129
8.57691
8.45494
8.40877
8.39302
8.38809
8.38672
8.38632
8.38621
8.38618
8.38619
8.38622
8.38627
8.38664
8.38805
8.39302
8.40887
8.45489
8.57693
8.87122
9.52661
10.9127
13.8288
20.4009
41.2754
41.2283
20.3906
13.8231
10.9083
9.52287
8.86774
8.57355
8.45164
8.40561
8.38981
8.38489
8.38349
8.38316
8.38305
8.38303
8.38305
8.38303
8.38309
8.38345
8.38498
8.38986
8.40568
8.45174
8.57362
8.86783
9.52275
10.9083
13.8231
20.3906
41.2284
41.1833
20.3808
13.8178
10.9042
9.5192
8.86439
8.57031
8.44842
8.40241
8.38662
8.38168
8.38026
8.37988
8.37985
8.37977
8.37979
8.37985
8.37999
8.38038
8.38169
8.38665
8.40244
8.44844
8.57032
8.8644
9.51918
10.9042
13.8178
20.3808
41.1834
41.1404
20.3714
13.8126
10.9003
9.51579
8.86124
8.56727
8.44542
8.39943
8.38365
8.37871
8.37728
8.3769
8.37681
8.37679
8.37679
8.37682
8.37691
8.37729
8.37871
8.38364
8.39942
8.44541
8.56726
8.86123
9.5158
10.9003
13.8126
20.3714
41.1405
41.0995
20.3624
13.8077
10.8965
9.51254
8.85821
8.56435
8.44255
8.39658
8.38081
8.37586
8.37444
8.37407
8.37397
8.37395
8.37395
8.37397
8.37406
8.37444
8.37586
8.3808
8.39657
8.44255
8.56435
8.85821
9.51254
10.8965
13.8077
20.3624
41.0996
41.0604
20.3539
13.803
10.8929
9.50942
8.8553
8.56154
8.43979
8.39383
8.37807
8.37313
8.37171
8.37133
8.37124
8.37122
8.37122
8.37124
8.37133
8.37171
8.37313
8.37806
8.39383
8.43979
8.56154
8.8553
9.50941
10.8929
13.803
20.3539
41.0605
41.0232
20.3457
13.7985
10.8895
9.50642
8.85251
8.55885
8.43714
8.3912
8.37544
8.3705
8.36908
8.3687
8.36861
8.36859
8.36859
8.36861
8.3687
8.36908
8.3705
8.37544
8.3912
8.43714
8.55885
8.85251
9.50641
10.8895
13.7985
20.3457
41.0233
40.9878
20.338
13.7942
10.8862
9.50355
8.84984
8.55627
8.4346
8.38867
8.37292
8.36798
8.36656
8.36619
8.36609
8.36607
8.36607
8.3661
8.36619
8.36657
8.36799
8.37292
8.38868
8.4346
8.55627
8.84984
9.50354
10.8862
13.7942
20.338
40.9879
40.9542
20.3306
13.79
10.883
9.50079
8.84728
8.5538
8.43216
8.38626
8.37051
8.36557
8.36415
8.36378
8.36368
8.36366
8.36366
8.36368
8.36378
8.36415
8.36557
8.37051
8.38626
8.43216
8.5538
8.84728
9.50079
10.883
13.79
20.3306
40.9543
40.9223
20.3236
13.7861
10.88
9.49816
8.84482
8.55143
8.42983
8.38394
8.3682
8.36326
8.36184
8.36147
8.36137
8.36135
8.36135
8.36137
8.36147
8.36184
8.36326
8.3682
8.38394
8.42983
8.55143
8.84482
9.49815
10.88
13.7861
20.3236
40.9224
40.8921
20.317
13.7824
10.8771
9.49563
8.84247
8.54916
8.4276
8.38172
8.36598
8.36105
8.35963
8.35925
8.35916
8.35914
8.35914
8.35916
8.35925
8.35963
8.36105
8.36598
8.38172
8.4276
8.54915
8.84247
9.49563
10.8771
13.7824
20.317
40.8922
40.8636
20.3107
13.7788
10.8744
9.49321
8.84022
8.54698
8.42545
8.37959
8.36385
8.35893
8.35751
8.35713
8.35704
8.35702
8.35702
8.35704
8.35713
8.35751
8.35893
8.36385
8.37959
8.42545
8.54698
8.84021
9.4932
10.8744
13.7788
20.3107
40.8637
40.8367
20.3047
13.7754
10.8717
9.49089
8.83805
8.54489
8.42339
8.37754
8.36181
8.35689
8.35547
8.35509
8.355
8.35498
8.35498
8.355
8.35509
8.35547
8.35689
8.36181
8.37754
8.42339
8.54489
8.83805
9.49088
10.8717
13.7754
20.3047
40.8368
40.8113
20.2991
13.7721
10.8692
9.48866
8.83597
8.54288
8.42142
8.37558
8.35985
8.35493
8.35351
8.35313
8.35304
8.35302
8.35302
8.35304
8.35313
8.35351
8.35492
8.35985
8.37558
8.42141
8.54288
8.83597
9.48865
10.8692
13.7721
20.2991
40.8114
40.7873
20.2937
13.769
10.8667
9.48653
8.83398
8.54096
8.41953
8.3737
8.35798
8.35305
8.35163
8.35125
8.35116
8.35114
8.35114
8.35116
8.35125
8.35163
8.35305
8.35798
8.3737
8.41952
8.54096
8.83398
9.48652
10.8667
13.769
20.2937
40.7874
40.7647
20.2886
13.766
10.8644
9.4845
8.83209
8.53913
8.41772
8.3719
8.35619
8.35126
8.34984
8.34947
8.34937
8.34935
8.34935
8.34937
8.34947
8.34984
8.35126
8.35619
8.3719
8.41772
8.53913
8.83209
9.48449
10.8644
13.766
20.2887
40.7648
40.7431
20.2838
13.7632
10.8622
9.48256
8.83028
8.53738
8.416
8.37019
8.35447
8.34955
8.34813
8.34775
8.34766
8.34764
8.34764
8.34766
8.34775
8.34813
8.34955
8.35447
8.37019
8.416
8.53738
8.83028
9.48255
10.8622
13.7632
20.2839
40.7433
40.7229
20.2793
13.7605
10.8601
9.48071
8.82855
8.5357
8.41434
8.36855
8.35283
8.34791
8.34649
8.34611
8.34602
8.346
8.346
8.34602
8.34611
8.34649
8.34791
8.35283
8.36855
8.41434
8.5357
8.82855
9.4807
10.8601
13.7605
20.2793
40.7231
40.704
20.2751
13.758
10.8581
9.47894
8.82689
8.53409
8.41276
8.36697
8.35126
8.34634
8.34492
8.34454
8.34445
8.34442
8.34442
8.34445
8.34454
8.34492
8.34634
8.35126
8.36697
8.41276
8.53409
8.82689
9.47894
10.8581
13.758
20.2752
40.7041
40.6864
20.2713
13.7556
10.8562
9.47726
8.82531
8.53255
8.41124
8.36546
8.34975
8.34483
8.34341
8.34303
8.34293
8.34291
8.34291
8.34293
8.34303
8.34341
8.34483
8.34975
8.36546
8.41124
8.53255
8.8253
9.47725
10.8562
13.7556
20.2713
40.6865
40.6699
20.2677
13.7534
10.8544
9.47565
8.82379
8.53108
8.40978
8.364
8.3483
8.34337
8.34195
8.34158
8.34148
8.34146
8.34146
8.34148
8.34157
8.34195
8.34337
8.3483
8.364
8.40978
8.53108
8.82379
9.47564
10.8544
13.7534
20.2677
40.67
40.6543
20.2644
13.7514
10.8527
9.47412
8.82233
8.52966
8.40838
8.3626
8.3469
8.34198
8.34056
8.34018
8.34008
8.34006
8.34006
8.34008
8.34018
8.34056
8.34198
8.3469
8.3626
8.40837
8.52966
8.82233
9.47411
10.8527
13.7514
20.2644
40.6545
40.6397
20.2614
13.7495
10.8511
9.47266
8.82094
8.52829
8.40702
8.36125
8.34555
8.34063
8.33921
8.33882
8.33873
8.33871
8.33871
8.33873
8.33882
8.33921
8.34063
8.34555
8.36125
8.40702
8.52829
8.82094
9.47265
10.8511
13.7495
20.2614
40.6398
40.6258
20.2586
13.7477
10.8496
9.47127
8.8196
8.52698
8.40571
8.35994
8.34424
8.33932
8.3379
8.33751
8.33742
8.3374
8.33739
8.33742
8.33751
8.3379
8.33932
8.34424
8.35994
8.40571
8.52697
8.8196
9.47126
10.8496
13.7477
20.2586
40.6259
40.6126
20.2561
13.7461
10.8482
9.46995
8.81833
8.52572
8.40446
8.35869
8.34299
8.33806
8.33664
8.33626
8.33616
8.33614
8.33614
8.33616
8.33626
8.33664
8.33806
8.34299
8.35869
8.40446
8.52572
8.81832
9.46995
10.8482
13.7461
20.2561
40.6127
40.6001
20.2539
13.7447
10.847
9.46876
8.81715
8.52454
8.40328
8.35751
8.34181
8.33688
8.33546
8.33507
8.33498
8.33495
8.33495
8.33498
8.33507
8.33546
8.33688
8.34181
8.35751
8.40328
8.52454
8.81714
9.46875
10.847
13.7447
20.254
40.6002
40.5879
20.2524
13.7435
10.8459
9.46771
8.81609
8.52347
8.40221
8.35643
8.34072
8.3358
8.33437
8.33399
8.33389
8.33387
8.33387
8.33389
8.33399
8.33437
8.3358
8.34072
8.35643
8.40221
8.52347
8.81609
9.4677
10.8459
13.7435
20.2524
40.588
40.5763
20.2514
13.7428
10.8451
9.46686
8.81521
8.52257
8.40129
8.35551
8.3398
8.33487
8.33344
8.33305
8.33296
8.33293
8.33293
8.33296
8.33305
8.33344
8.33487
8.3398
8.35551
8.40129
8.52257
8.81521
9.46686
10.8451
13.7428
20.2514
40.5764
40.565
20.2513
13.7426
10.8448
9.46638
8.81466
8.52198
8.40068
8.35489
8.33917
8.33424
8.33281
8.33242
8.33232
8.3323
8.3323
8.33232
8.33242
8.33281
8.33424
8.33917
8.35489
8.40068
8.52198
8.81465
9.46638
10.8448
13.7426
20.2513
40.5651
40.554
20.2525
13.7434
10.8451
9.46656
8.81472
8.52198
8.40065
8.35485
8.33912
8.33419
8.33276
8.33237
8.33227
8.33225
8.33225
8.33227
8.33237
8.33276
8.33419
8.33912
8.35485
8.40065
8.52198
8.81471
9.46655
10.8451
13.7433
20.2525
40.5542
40.5444
20.256
13.7457
10.8469
9.46796
8.81595
8.52313
8.40176
8.35595
8.34022
8.33529
8.33386
8.33347
8.33337
8.33335
8.33335
8.33337
8.33347
8.33386
8.33529
8.34022
8.35595
8.40176
8.52313
8.81595
9.46796
10.8469
13.7457
20.256
40.5445
40.5397
20.2635
13.751
10.8511
9.47164
8.81937
8.52643
8.40501
8.35918
8.34345
8.33852
8.33709
8.33671
8.33661
8.33659
8.33659
8.33661
8.33671
8.33709
8.33852
8.34345
8.35918
8.40501
8.52643
8.81937
9.47164
10.8511
13.751
20.2635
40.5398
40.542
20.2776
13.7613
10.8596
9.47933
8.82664
8.5335
8.41201
8.36616
8.35043
8.3455
8.34408
8.3437
8.3436
8.34358
8.34358
8.3436
8.3437
8.34408
8.3455
8.35043
8.36616
8.41201
8.5335
8.82664
9.47932
10.8596
13.7613
20.2776
40.5421
40.5567
20.3025
13.7801
10.8755
9.4937
8.84023
8.54673
8.42509
8.3792
8.36347
8.35855
8.35713
8.35676
8.35666
8.35664
8.35664
8.35666
8.35676
8.35713
8.35855
8.36347
8.3792
8.42509
8.54673
8.84023
9.4937
10.8755
13.7801
20.3025
40.5569
40.5955
20.3461
13.8132
10.903
9.51816
8.86306
8.56878
8.44682
8.40083
8.38507
8.38016
8.37875
8.37838
8.37829
8.37828
8.37828
8.37829
8.37838
8.37875
8.38016
8.38507
8.40083
8.44682
8.56878
8.86306
9.51815
10.903
13.8132
20.3461
40.5957
40.6799
20.422
13.8685
10.9465
9.55504
8.89654
8.60066
8.47804
8.4318
8.41597
8.41103
8.40963
8.40926
8.40917
8.40916
8.40916
8.40917
8.40926
8.40963
8.41103
8.41597
8.4318
8.47804
8.60066
8.89654
9.55504
10.9465
13.8685
20.422
40.68
40.8523
20.5532
13.952
11.0047
9.6004
8.93571
8.63703
8.51322
8.46651
8.45051
8.4455
8.44406
8.44368
8.44358
8.44356
8.44356
8.44358
8.44368
8.44406
8.4455
8.45051
8.46651
8.51322
8.63703
8.93571
9.6004
11.0047
13.952
20.5532
40.8524
41.1588
20.7515
14.0465
11.0553
9.6327
8.96028
8.6583
8.53308
8.48575
8.46945
8.46429
8.46277
8.46233
8.4622
8.46216
8.46216
8.4622
8.46233
8.46277
8.46429
8.46945
8.48575
8.53308
8.6583
8.96029
9.6327
11.0553
14.0465
20.7515
41.1589
41.8954
20.9773
14.0862
11.0494
9.61406
8.93746
8.63375
8.50759
8.45967
8.44296
8.43752
8.4358
8.43523
8.43503
8.43495
8.43495
8.43503
8.43523
8.4358
8.43752
8.44296
8.45967
8.5076
8.63375
8.93747
9.61407
11.0494
14.0862
20.9773
41.8956
40.2494
20.0756
13.6206
10.7504
9.38523
8.73913
8.4483
8.32717
8.28094
8.26467
8.25924
8.25742
8.25677
8.2565
8.25639
8.25639
8.2565
8.25677
8.25742
8.25924
8.26467
8.28095
8.32718
8.44831
8.73913
9.38523
10.7504
13.6205
20.0755
40.2495
39.9736
19.6104
13.3594
10.5859
9.26286
8.63547
8.35307
8.23574
8.19124
8.17576
8.17074
8.16915
8.16861
8.16841
8.16834
8.16834
8.16841
8.16861
8.16915
8.17074
8.17577
8.19124
8.23574
8.35308
8.63548
9.26288
10.5859
13.3595
19.6105
39.9738
40.5774
20.2421
13.6333
10.7326
9.36305
8.71797
8.42903
8.30957
8.26459
8.24919
8.24435
8.24293
8.24252
8.2424
8.24237
8.24237
8.2424
8.24252
8.24293
8.24435
8.24919
8.2646
8.30957
8.42904
8.71797
9.36306
10.7326
13.6334
20.2421
40.5775
40.4398
20.4571
13.7801
10.831
9.43699
8.78064
8.48681
8.36539
8.31972
8.30411
8.29924
8.29785
8.29747
8.29738
8.29736
8.29736
8.29738
8.29747
8.29785
8.29924
8.30411
8.31972
8.36539
8.48681
8.78064
9.43699
10.831
13.7801
20.4571
40.44
40.5716
20.3724
13.788
10.8575
9.46517
8.80778
8.51299
8.39103
8.34509
8.32938
8.32448
8.32308
8.32271
8.32262
8.3226
8.3226
8.32262
8.32271
8.32308
8.32448
8.32939
8.3451
8.39103
8.51299
8.80778
9.46517
10.8575
13.788
20.3724
40.5717
40.6213
20.3115
13.7685
10.8554
9.46938
8.81403
8.51981
8.39795
8.352
8.33626
8.33134
8.32993
8.32955
8.32946
8.32944
8.32944
8.32946
8.32955
8.32993
8.33134
8.33626
8.352
8.39795
8.51981
8.81403
9.46938
10.8554
13.7685
20.3115
40.6214
40.6421
20.2877
13.7546
10.8486
9.46635
8.81268
8.51911
8.39745
8.35155
8.33581
8.33088
8.32946
8.32908
8.32899
8.32897
8.32897
8.32899
8.32908
8.32946
8.33088
8.33581
8.35155
8.39745
8.51911
8.81268
9.46635
10.8486
13.7546
20.2877
40.6422
40.6553
20.2764
13.7469
10.8435
9.46295
8.81017
8.51699
8.39547
8.34961
8.33388
8.32895
8.32753
8.32716
8.32706
8.32704
8.32704
8.32706
8.32716
8.32753
8.32895
8.33388
8.34961
8.39547
8.51699
8.81017
9.46294
10.8435
13.7469
20.2764
40.6554
40.6649
20.27
13.7425
10.8404
9.46068
8.80836
8.5154
8.39398
8.34815
8.33243
8.3275
8.32608
8.3257
8.32561
8.32559
8.32559
8.32561
8.3257
8.32608
8.3275
8.33243
8.34815
8.39398
8.5154
8.80836
9.46068
10.8404
13.7425
20.27
40.665
40.6719
20.2661
13.7399
10.8386
9.45937
8.80733
8.51451
8.39316
8.34735
8.33164
8.32671
8.32529
8.32491
8.32482
8.3248
8.3248
8.32482
8.32491
8.32529
8.32671
8.33164
8.34735
8.39316
8.51451
8.80733
9.45937
10.8386
13.7399
20.2661
40.672
40.6771
20.2638
13.7384
10.8376
9.45863
8.80677
8.51406
8.39275
8.34697
8.33126
8.32634
8.32492
8.32454
8.32445
8.32442
8.32442
8.32445
8.32454
8.32492
8.32634
8.33126
8.34697
8.39275
8.51406
8.80677
9.45862
10.8376
13.7384
20.2638
40.6772
40.6811
20.2623
13.7374
10.8369
9.45818
8.80646
8.51383
8.39256
8.34679
8.33109
8.32617
8.32475
8.32437
8.32427
8.32425
8.32425
8.32427
8.32437
8.32475
8.32617
8.33109
8.34679
8.39256
8.51383
8.80646
9.45817
10.8369
13.7374
20.2623
40.6813
40.6843
20.2614
13.7367
10.8365
9.45788
8.80626
8.51369
8.39245
8.34669
8.331
8.32608
8.32466
8.32428
8.32419
8.32417
8.32417
8.32419
8.32428
8.32466
8.32608
8.331
8.34669
8.39245
8.51369
8.80626
9.45787
10.8365
13.7367
20.2614
40.6845
40.687
20.2609
13.7363
10.8361
9.45767
8.80612
8.51359
8.39238
8.34663
8.33094
8.32602
8.32461
8.32423
8.32413
8.32411
8.32411
8.32413
8.32423
8.32461
8.32602
8.33094
8.34663
8.39238
8.51359
8.80612
9.45766
10.8361
13.7363
20.2609
40.6871
40.6894
20.2607
13.736
10.8359
9.45751
8.80602
8.51352
8.39232
8.34659
8.3309
8.32598
8.32456
8.32419
8.32409
8.32407
8.32407
8.32409
8.32419
8.32456
8.32598
8.3309
8.34659
8.39232
8.51352
8.80602
9.45751
10.8359
13.736
20.2607
40.6895
40.6921
20.2608
13.7359
10.8358
9.4574
8.80594
8.51346
8.39228
8.34655
8.33086
8.32595
8.32453
8.32415
8.32406
8.32404
8.32404
8.32406
8.32415
8.32453
8.32595
8.33086
8.34655
8.39228
8.51346
8.80593
9.45739
10.8358
13.7359
20.2608
40.6922
40.6948
20.2611
13.7359
10.8357
9.45732
8.80587
8.51341
8.39224
8.34651
8.33083
8.32591
8.3245
8.32412
8.32402
8.324
8.324
8.32402
8.32412
8.3245
8.32591
8.33083
8.34651
8.39224
8.51341
8.80587
9.45731
10.8357
13.7359
20.2611
40.6949
40.6976
20.2616
13.736
10.8357
9.45726
8.80582
8.51337
8.3922
8.34648
8.3308
8.32588
8.32447
8.32409
8.32399
8.32397
8.32397
8.32399
8.32409
8.32447
8.32588
8.3308
8.34648
8.3922
8.51337
8.80582
9.45725
10.8357
13.736
20.2616
40.6977
40.7003
20.2623
13.7361
10.8357
9.45722
8.80578
8.51333
8.39217
8.34645
8.33077
8.32586
8.32444
8.32406
8.32397
8.32395
8.32395
8.32397
8.32406
8.32444
8.32586
8.33077
8.34645
8.39217
8.51333
8.80578
9.45721
10.8357
13.7361
20.2623
40.7005
40.7033
20.263
13.7363
10.8357
9.45719
8.80575
8.5133
8.39214
8.34642
8.33074
8.32583
8.32441
8.32404
8.32394
8.32392
8.32392
8.32394
8.32404
8.32441
8.32583
8.33074
8.34642
8.39214
8.5133
8.80574
9.45719
10.8357
13.7363
20.263
40.7034
40.7061
20.2638
13.7365
10.8357
9.45718
8.80572
8.51328
8.39211
8.3464
8.33072
8.32581
8.32439
8.32401
8.32392
8.3239
8.3239
8.32392
8.32401
8.32439
8.32581
8.33072
8.3464
8.39211
8.51327
8.80572
9.45718
10.8357
13.7365
20.2638
40.7062
40.7089
20.2647
13.7368
10.8358
9.45718
8.8057
8.51325
8.39209
8.34638
8.3307
8.32579
8.32437
8.32399
8.3239
8.32388
8.32388
8.3239
8.32399
8.32437
8.32579
8.3307
8.34638
8.39209
8.51325
8.8057
9.45717
10.8358
13.7368
20.2647
40.709
40.7118
20.2656
13.737
10.8358
9.45718
8.80569
8.51323
8.39207
8.34636
8.33068
8.32577
8.32435
8.32397
8.32388
8.32386
8.32386
8.32388
8.32397
8.32435
8.32577
8.33068
8.34636
8.39207
8.51323
8.80568
9.45718
10.8358
13.737
20.2656
40.7119
40.7148
20.2666
13.7373
10.8359
9.4572
8.80568
8.51322
8.39205
8.34634
8.33066
8.32575
8.32433
8.32395
8.32386
8.32384
8.32384
8.32386
8.32395
8.32433
8.32575
8.33066
8.34634
8.39205
8.51322
8.80568
9.45719