/*--------------------------------*- C++ -*----------------------------------*\
| =========                 |                                                 |
| \\      /  F ield         | OpenFOAM: The Open Source CFD Toolbox           |
|  \\    /   O peration     | Version:  2312                                  |
|   \\  /    A nd           | Website:  www.openfoam.com                      |
|    \\/     M anipulation  |                                                 |
\*---------------------------------------------------------------------------*/
FoamFile
{
    version     2.0;
    format      ascii;
    arch        "LSB;label=32;scalar=64";
    class       volScalarField;
    location    "0.01";
    object      nuFric.particles;
}
// * * * * * * * * * * * * * * * * * * * * * * * * * * * * * * * * * * * * * //

dimensions      [0 2 -1 0 0 0 0];

internalField   nonuniform List<scalar> 
6000
(
0.000485823
0.000111668
7.29408e-05
6.33891e-05
5.50035e-05
5.06919e-05
4.83492e-05
4.69447e-05
4.60312e-05
4.54054e-05
4.49668e-05
4.46631e-05
4.44574e-05
4.433e-05
4.42695e-05
4.42698e-05
4.43303e-05
4.44579e-05
4.46638e-05
4.49671e-05
4.5405e-05
4.60305e-05
4.69438e-05
4.83481e-05
5.06907e-05
5.5003e-05
6.33886e-05
7.29402e-05
0.000111679
0.00048582
0.00117787
0.000851008
0.00064171
0.000515282
0.00044832
0.000418726
0.000406379
0.000401298
0.000399191
0.000398186
0.000397696
0.000397384
0.000397202
0.000397082
0.000397028
0.000397037
0.000397091
0.000397214
0.00039739
0.000397709
0.000398216
0.000399218
0.000401306
0.000406377
0.000418742
0.000448326
0.000515273
0.000641702
0.000851007
0.00117786
0.00394165
0.00487808
0.00446117
0.00391734
0.0035727
0.00339404
0.00331649
0.00328635
0.00327724
0.00327502
0.00327615
0.00327681
0.00327779
0.00327853
0.00327873
0.00327868
0.00327861
0.00327794
0.0032769
0.00327625
0.00327532
0.00327749
0.00328651
0.00331655
0.00339426
0.0035727
0.00391735
0.00446114
0.00487792
0.00394156
0.00668981
0.00793392
0.00801724
0.00774483
0.0074465
0.00723987
0.00712544
0.00707473
0.00705273
0.00704404
0.00704175
0.00703956
0.00703982
0.00704041
0.00704057
0.00703969
0.00704097
0.00704051
0.00704194
0.00704407
0.00704512
0.00705353
0.00707624
0.00712649
0.00723826
0.00744488
0.0077445
0.00801692
0.00793374
0.00668923
0.00811244
0.00898456
0.00928592
0.0092981
0.00920312
0.00911262
0.00903943
0.0090124
0.00899275
0.00898664
0.00898221
0.00897836
0.00897937
0.00897523
0.00897697
0.00897711
0.00897906
0.00897801
0.00898407
0.00898969
0.00898889
0.00899594
0.00901543
0.00904184
0.00910684
0.00920185
0.00929584
0.00928485
0.00898577
0.00811125
0.00881896
0.00957294
0.00997786
0.0101222
0.0101483
0.0101423
0.0101285
0.0101247
0.0101155
0.0101136
0.0101175
0.0101101
0.0101144
0.0101011
0.010103
0.0101012
0.0101094
0.0101034
0.0101108
0.0101255
0.0101191
0.0101247
0.0101297
0.0101325
0.0101419
0.0101568
0.0101169
0.00997637
0.00957719
0.00881875
0.00915445
0.00992858
0.0103792
0.0105849
0.0106472
0.0106816
0.010703
0.0107149
0.0107126
0.0107167
0.0107238
0.0107238
0.0107322
0.0107276
0.0107263
0.0106997
0.0107245
0.010721
0.0107206
0.0107386
0.0107363
0.0107289
0.0107296
0.0107147
0.0106891
0.0106534
0.0105742
0.0103753
0.00993333
0.00915666
0.00931536
0.0101096
0.0105958
0.0107685
0.0108286
0.0108397
0.0108514
0.010885
0.0108735
0.0109069
0.0109056
0.0109072
0.0109293
0.0109121
0.0109297
0.0109061
0.010933
0.0109191
0.0109233
0.0109216
0.0109366
0.0109143
0.0109239
0.0108848
0.0108652
0.0108437
0.0107629
0.010585
0.0101098
0.00931693
0.00938415
0.0101614
0.0106964
0.0108321
0.0109027
0.0108896
0.0109351
0.010946
0.0109687
0.0109912
0.0110076
0.0110087
0.0109999
0.0109617
0.0110109
0.0109773
0.0110107
0.0109929
0.0110388
0.0110049
0.0110227
0.0109965
0.0109809
0.0109566
0.010974
0.0109184
0.010857
0.010687
0.0101583
0.00938436
0.00940563
0.0101356
0.0107396
0.0109024
0.0109832
0.0109857
0.0110261
0.0110541
0.0110578
0.0110438
0.0110579
0.0110387
0.0110548
0.0110454
0.0110922
0.0110427
0.0110443
0.011056
0.0110793
0.0110949
0.0111002
0.0110533
0.011028
0.0109886
0.0109676
0.0109784
0.0109169
0.0107338
0.0101314
0.00940391
0.00936219
0.0100341
0.0107313
0.0109816
0.0110478
0.0111136
0.011085
0.0111232
0.0111248
0.0111471
0.0110835
0.0110836
0.0111099
0.0111884
0.0111481
0.0111402
0.0111389
0.011154
0.0111272
0.011149
0.0111483
0.0111291
0.011134
0.0111119
0.011044
0.0110261
0.0109658
0.0107251
0.0100305
0.00936047
0.0092964
0.00989678
0.0106691
0.0110454
0.0111011
0.0111371
0.0111186
0.0111462
0.0111557
0.0111412
0.0111617
0.0111691
0.0112238
0.0112203
0.0111981
0.0112673
0.0112698
0.0112642
0.0112231
0.011159
0.0112314
0.0111935
0.0112428
0.0112145
0.0111506
0.0111183
0.0110258
0.0106693
0.00989443
0.00929507
0.00920699
0.0097687
0.0104776
0.0110556
0.0111329
0.0111304
0.0111513
0.0111435
0.0111826
0.0112374
0.0112601
0.0113047
0.0112661
0.0112916
0.011245
0.011263
0.0112926
0.0112557
0.0112984
0.0112463
0.0112338
0.0112593
0.0112151
0.0112047
0.0112559
0.0111694
0.0110925
0.0104984
0.00976842
0.00920701
0.00910359
0.00964001
0.0102175
0.0109929
0.0111381
0.0111502
0.01118
0.0112629
0.0112723
0.0112213
0.0113037
0.0112718
0.0113088
0.011249
0.0113333
0.0112608
0.0112584
0.0112593
0.0112941
0.0113136
0.011293
0.0112311
0.0112227
0.0112035
0.0111908
0.0111909
0.0109576
0.0102293
0.00964057
0.00910411
0.00899442
0.0095048
0.0100229
0.0105911
0.0111028
0.011176
0.011262
0.0112067
0.0112692
0.0113143
0.0112196
0.0112449
0.0112373
0.0113364
0.0112681
0.0112608
0.0112597
0.011265
0.0112612
0.0113248
0.0112542
0.0112596
0.0112358
0.0111997
0.0111852
0.0111318
0.0105961
0.0100234
0.00950516
0.0089949
0.00887285
0.00936854
0.0098622
0.010183
0.0106132
0.0108997
0.0110258
0.0112261
0.0111127
0.0111335
0.0111072
0.0112146
0.0111256
0.0110787
0.0110853
0.0112728
0.0112055
0.0111589
0.0108535
0.0108267
0.0107054
0.0107178
0.0108109
0.0107577
0.0104221
0.0103786
0.0101795
0.00986049
0.0093688
0.00887545
0.00872382
0.00925185
0.00971439
0.00998564
0.0100976
0.00996257
0.00989269
0.00993674
0.00991147
0.00990736
0.00991135
0.00998133
0.00991518
0.00990434
0.00992688
0.00999847
0.00995937
0.00995269
0.00992471
0.00992537
0.00992027
0.0099504
0.00995048
0.00991822
0.00997301
0.0100547
0.00997936
0.0097132
0.00925195
0.00873157
0.00864359
0.00916353
0.00958509
0.00984028
0.00995149
0.00988527
0.00982368
0.00984481
0.00982008
0.00981917
0.00981932
0.00983279
0.00982304
0.00981453
0.00983443
0.00986494
0.00986715
0.00986259
0.00983969
0.00984313
0.00983806
0.00986822
0.0098677
0.00984423
0.00989741
0.00993254
0.00983629
0.0095835
0.0091629
0.00864563
0.00858926
0.00908383
0.00947819
0.00971916
0.0098403
0.0098219
0.00978478
0.009796
0.00977074
0.00978708
0.00977283
0.009781
0.00976822
0.00976585
0.00977446
0.00979873
0.00981972
0.00982006
0.00980235
0.00981967
0.00980452
0.00982247
0.0098264
0.00980464
0.00984393
0.00983508
0.00972029
0.00947604
0.00908355
0.0085899
0.00853809
0.0090033
0.00938077
0.0096332
0.00975447
0.00976812
0.00979651
0.00978923
0.00980295
0.0097832
0.00979869
0.00978405
0.00979898
0.00981028
0.00981473
0.00981717
0.00983036
0.00982015
0.0098313
0.00981298
0.00983945
0.0098207
0.00984083
0.00984253
0.00980558
0.00976655
0.00963695
0.00938235
0.00900342
0.00853853
0.00848387
0.00890987
0.00927605
0.00954349
0.00973193
0.00980482
0.00985437
0.00984854
0.00986802
0.00986319
0.00987048
0.00983316
0.00984107
0.00985664
0.00985067
0.00984467
0.00987212
0.00987926
0.00991958
0.00992254
0.0099419
0.0098856
0.00991426
0.00990297
0.00986893
0.00978054
0.00954761
0.00927758
0.00890994
0.00848368
0.00842393
0.00880305
0.00915779
0.00938269
0.00970947
0.00982962
0.00991058
0.00988522
0.00991195
0.00989434
0.00989654
0.00989615
0.00989346
0.00990167
0.00989246
0.00988616
0.00991259
0.00993398
0.00995088
0.00994994
0.00996254
0.00995222
0.00990963
0.00995663
0.00989651
0.00971084
0.00938276
0.00915822
0.00880297
0.00842299
0.00836189
0.00870584
0.00904356
0.00921047
0.00942435
0.00986874
0.00984924
0.00987617
0.00985441
0.0098474
0.00987127
0.00985187
0.00984367
0.00983817
0.0098612
0.0098937
0.00989909
0.00990322
0.00990063
0.00991108
0.00991203
0.00990139
0.00990775
0.00988163
0.00989105
0.00943784
0.0091873
0.00904352
0.00870549
0.00836033
0.00830234
0.00862063
0.00893769
0.00908573
0.00908263
0.00937236
0.00986372
0.00986256
0.00984132
0.00986712
0.00982918
0.00986767
0.0098612
0.00987
0.00986316
0.00988267
0.00985673
0.00990046
0.00986495
0.00989569
0.00986537
0.00991467
0.00988188
0.00989218
0.00942356
0.00899676
0.00904208
0.00893694
0.00861963
0.00830013
0.00824674
0.00854469
0.00883914
0.00898336
0.00898715
0.00889506
0.00916906
0.00897688
0.00943117
0.00934311
0.00943768
0.00923742
0.00935884
0.00928721
0.00927499
0.00897515
0.00887394
0.00898263
0.00919277
0.0091192
0.00920222
0.00929744
0.00891257
0.00894516
0.00885206
0.00884612
0.00894887
0.00883867
0.0085436
0.0082442
0.00818819
0.00848032
0.00875012
0.00888991
0.00891643
0.00886803
0.00886709
0.00883709
0.00886939
0.00885417
0.00886542
0.00885971
0.00885977
0.00884266
0.00885354
0.00882334
0.00880788
0.00883051
0.0088583
0.0088544
0.00884567
0.00883629
0.00880257
0.0088123
0.00879612
0.00882283
0.00886717
0.00874987
0.00847919
0.00818548
0.00810407
0.00842304
0.00867325
0.0088074
0.00885169
0.00882063
0.00881443
0.00879573
0.00881256
0.00879985
0.00880904
0.00880529
0.00880428
0.00878861
0.00879914
0.00877293
0.00876695
0.00877916
0.00880384
0.0088013
0.00879287
0.00878375
0.00877067
0.00876974
0.00876413
0.00877916
0.00879458
0.00867363
0.00842226
0.00810143
0.0080406
0.00837132
0.00861175
0.0087399
0.00879686
0.00878204
0.00878289
0.00879039
0.0087737
0.00877291
0.00877571
0.00877112
0.00877068
0.00876239
0.00876693
0.00876249
0.0087693
0.00876289
0.00876752
0.00877086
0.00876951
0.0087679
0.00878479
0.00878782
0.00876656
0.0087442
0.00873984
0.0086132
0.00837117
0.00804069
0.00800183
0.00831211
0.00854676
0.00870579
0.00876627
0.00879846
0.00880254
0.00882189
0.00880685
0.00879809
0.00879041
0.0087926
0.00879031
0.00880562
0.00878535
0.0087912
0.0088054
0.0087872
0.00878806
0.00880052
0.00879377
0.00880638
0.00882134
0.00881393
0.00881295
0.00877362
0.00872381
0.00854923
0.00831282
0.00800271
0.00796351
0.0082385
0.00846831
0.00865195
0.00878633
0.00882627
0.0088535
0.00889696
0.00884252
0.00884957
0.00883351
0.00882803
0.00883013
0.00883869
0.00883422
0.00885111
0.00887788
0.00883734
0.00882241
0.00882989
0.00884766
0.00886271
0.00888034
0.00885282
0.00884013
0.00881295
0.00869104
0.00846881
0.0082402
0.00796477
0.00792308
0.00817008
0.00838646
0.00852949
0.00879566
0.00887994
0.00889477
0.00884676
0.00889523
0.00887666
0.00886394
0.00885895
0.00885215
0.00886447
0.00885619
0.00885103
0.00881987
0.00887495
0.00885058
0.00886218
0.00887259
0.00888334
0.00884603
0.00886323
0.00881928
0.00883847
0.00860421
0.00838887
0.00817314
0.00792496
0.00788317
0.00810895
0.00831299
0.00840335
0.00859383
0.0088384
0.00885657
0.00887277
0.00883799
0.00884311
0.00884318
0.00883174
0.00883508
0.00881768
0.00884335
0.0088188
0.00885079
0.00882411
0.00883023
0.00882367
0.00883959
0.00883431
0.00886408
0.00883486
0.00881952
0.00880657
0.00844414
0.00831547
0.00811175
0.00788461
0.00784564
0.00805323
0.00824321
0.00832013
0.00829982
0.00854918
0.00829864
0.00858719
0.00833216
0.00854585
0.0086143
0.0086445
0.00863998
0.00871046
0.00859371
0.00883017
0.00880294
0.00869609
0.00866437
0.00865369
0.00843461
0.00853742
0.00862734
0.00849221
0.00868476
0.00848406
0.00833534
0.00824582
0.00805501
0.00784635
0.00781149
0.00800294
0.0081791
0.00825396
0.00817312
0.00815331
0.00813918
0.00815995
0.00814218
0.00816038
0.00815376
0.00816908
0.0081525
0.00816702
0.00813544
0.00817826
0.00817986
0.00814429
0.00818864
0.00814381
0.00815606
0.00815436
0.00816191
0.00817173
0.00816126
0.00818561
0.00826264
0.00818058
0.00800379
0.00781158
0.00778006
0.00796073
0.00812229
0.0081955
0.00816465
0.00813266
0.00811316
0.00812261
0.00811337
0.00812262
0.00811609
0.00812909
0.00811451
0.00812679
0.00810873
0.00813596
0.00813274
0.00811664
0.00814812
0.00811783
0.0081191
0.00811659
0.00812272
0.00813476
0.00813971
0.0081705
0.00820136
0.00812253
0.00796136
0.00777989
0.00774604
0.00792541
0.00807366
0.00814459
0.00813326
0.00810652
0.00809468
0.00811073
0.00809709
0.00810792
0.00810591
0.00810461
0.00810662
0.00810571
0.00809041
0.00810849
0.0081049
0.00809381
0.00811653
0.00810464
0.00810534
0.00810396
0.00810358
0.00812
0.00811504
0.00813989
0.00814722
0.0080727
0.00792545
0.00774716
0.00769013
0.00789142
0.00803274
0.00810315
0.00810752
0.00811109
0.00811378
0.0080951
0.00811186
0.00810865
0.0081106
0.00811223
0.00810086
0.00810364
0.00810607
0.00810392
0.00811271
0.00810085
0.00810756
0.00810308
0.00812762
0.00811432
0.00811799
0.0081217
0.00812512
0.00811345
0.00810303
0.00803175
0.00789158
0.0076979
0.00765631
0.00785485
0.0079921
0.0080825
0.00811928
0.00813511
0.00814556
0.00815815
0.00815612
0.00816459
0.00816804
0.00813534
0.00816005
0.00814415
0.0081443
0.0081342
0.00813059
0.00813051
0.00812379
0.00815468
0.00815918
0.0081655
0.00815058
0.0081568
0.00815434
0.00812801
0.00807534
0.00799243
0.00785481
0.00765726
0.00762968
0.00780942
0.00794699
0.0080633
0.00814003
0.00816281
0.00818609
0.00814564
0.00819689
0.00815485
0.00816544
0.00818303
0.00816922
0.00814912
0.00818996
0.00814368
0.00816726
0.00817327
0.00814639
0.00817993
0.00818029
0.00816933
0.00818462
0.00816419
0.00818474
0.00815247
0.0080439
0.00794645
0.00780908
0.00762901
0.00760282
0.00776115
0.00789095
0.00796753
0.00816914
0.00818593
0.00815037
0.00818433
0.00814707
0.00818089
0.00816366
0.00815327
0.00817101
0.008149
0.00814502
0.00818412
0.0081543
0.00815508
0.00817087
0.00817019
0.00815486
0.00818183
0.00815329
0.00817809
0.00815528
0.00816403
0.00796093
0.0078914
0.00776114
0.00760189
0.00757728
0.00772109
0.00784261
0.00787841
0.00813626
0.00814866
0.00817063
0.00814476
0.00816228
0.00815038
0.00815371
0.00816899
0.00815209
0.00814339
0.0081505
0.00814917
0.0081722
0.00815017
0.0081819
0.00815499
0.00818562
0.0081506
0.00816902
0.00816282
0.00815228
0.00809176
0.00787668
0.00784178
0.00772092
0.00757595
0.00755294
0.00768453
0.00779609
0.00781364
0.00785129
0.00804527
0.0081379
0.00818574
0.00814751
0.0081759
0.00816728
0.00815051
0.0081566
0.00816886
0.00814519
0.00812318
0.00814254
0.00816428
0.00814932
0.00817682
0.00814634
0.00812328
0.00815367
0.00810371
0.00803465
0.00777255
0.00779688
0.00779547
0.00768439
0.00755139
0.00753065
0.0076514
0.00775393
0.00771357
0.0076877
0.00768827
0.007931
0.00787588
0.00797128
0.00777157
0.00772414
0.0077662
0.00777441
0.00784143
0.00788881
0.00771882
0.00776665
0.00781312
0.00771519
0.00773095
0.00791825
0.00771846
0.00777599
0.00770928
0.00770813
0.00771793
0.00776021
0.00775488
0.00765166
0.00752908
0.00751049
0.00762272
0.00771757
0.00769878
0.00767987
0.00766616
0.00768905
0.00770451
0.00771599
0.00770417
0.00768208
0.00769891
0.00769993
0.0077232
0.00771755
0.0076936
0.00769941
0.00770359
0.00768885
0.00769916
0.00771872
0.00769472
0.007712
0.0076886
0.0076883
0.00770832
0.00772933
0.00771817
0.00762316
0.00750879
0.00749116
0.00759892
0.00768544
0.00768004
0.00766465
0.00766137
0.00766896
0.00768138
0.00769119
0.00768117
0.00767029
0.00767643
0.00768386
0.00769965
0.00769352
0.00767645
0.00767745
0.0076811
0.00767593
0.00767795
0.00769448
0.00767899
0.00768842
0.00767133
0.00767374
0.00768831
0.00770422
0.00768649
0.00759934
0.00748922
0.00746559
0.00757865
0.00765961
0.00766461
0.00766463
0.00766241
0.00765714
0.00766856
0.00767268
0.00767794
0.0076739
0.00768117
0.00767912
0.00768334
0.00767908
0.00769092
0.00768001
0.00768639
0.00767985
0.00768976
0.00767906
0.00768562
0.00767239
0.00768209
0.0076764
0.00768016
0.00768277
0.00766026
0.00757836
0.0074628
0.00743419
0.0075561
0.00763832
0.0076695
0.00767634
0.00769289
0.00766456
0.00766824
0.00767885
0.00768881
0.0077006
0.00769043
0.00770199
0.00769161
0.00769293
0.0076997
0.0077052
0.00769596
0.0077144
0.00769527
0.0076919
0.00769706
0.00768957
0.0076992
0.00770463
0.00769504
0.00767591
0.0076374
0.00755615
0.00743396
0.00741594
0.00752749
0.00760963
0.00768723
0.00770956
0.007699
0.00768681
0.00769428
0.00768981
0.00772302
0.00772686
0.00773068
0.00771454
0.00770568
0.00770135
0.00773685
0.00771729
0.00773727
0.00771974
0.00773674
0.00769897
0.00774995
0.0076988
0.00773607
0.00770594
0.00770754
0.0076856
0.00760909
0.00752709
0.00741593
0.00739959
0.00749783
0.00757552
0.00770779
0.00769597
0.00769568
0.00770325
0.00769267
0.0077301
0.00771727
0.00772885
0.0077122
0.00773225
0.00771818
0.00773896
0.00770228
0.0077291
0.00771384
0.0077261
0.00771123
0.00775009
0.0077029
0.00775246
0.00770947
0.00771551
0.00771542
0.00768739
0.00757441
0.00749768
0.00739948
0.00738365
0.00747316
0.00754396
0.00768205
0.00769899
0.0076856
0.00768767
0.00771288
0.00770234
0.00771612
0.0077101
0.00771945
0.00770496
0.00771324
0.00770054
0.00772786
0.00770296
0.00772453
0.00770399
0.00772599
0.0077083
0.0077241
0.00770131
0.00771783
0.00770126
0.00770769
0.0076447
0.0075435
0.00747306
0.00738343
0.00736787
0.00744975
0.00751465
0.0075895
0.00767431
0.00769843
0.00768343
0.00768122
0.00769747
0.0077068
0.0077239
0.00770781
0.00771962
0.007705
0.00771238
0.00769868
0.00773215
0.0076996
0.00773093
0.00770109
0.0077217
0.0076984
0.00771095
0.00769663
0.0077229
0.00770369
0.00754824
0.00751435
0.00744978
0.00736765
0.00735289
0.00742785
0.00748659
0.00748071
0.00754653
0.00767692
0.00768526
0.00759413
0.00759084
0.00761367
0.0075726
0.00759142
0.00754202
0.00751023
0.00755443
0.00764366
0.00754771
0.00759664
0.0075848
0.00764483
0.00754327
0.00764466
0.00757429
0.00764709
0.00763925
0.00757269
0.00747026
0.00748697
0.00742767
0.00735274
0.00733932
0.00740825
0.0074627
0.00744284
0.00742927
0.0075185
0.00744316
0.00743335
0.00743104
0.00743728
0.0074319
0.00742813
0.0074303
0.00742562
0.00742925
0.00743159
0.00743466
0.00742945
0.00743186
0.00743364
0.00743078
0.00742653
0.0074305
0.00742301
0.007426
0.00742744
0.0074378
0.0074629
0.00740823
0.00733928
0.00732702
0.00739083
0.0074412
0.00742937
0.00741845
0.00742947
0.00741566
0.00741824
0.00741756
0.00742229
0.00741791
0.00741369
0.00741578
0.00741331
0.00741477
0.00741631
0.00741909
0.00741435
0.00741614
0.00741787
0.00741532
0.00741136
0.00741511
0.00740823
0.0074109
0.00741779
0.00742947
0.00744138
0.00739089
0.00732699
0.00731564
0.00737563
0.00742209
0.00741835
0.00740942
0.00741558
0.00740946
0.00741194
0.00740942
0.00741677
0.00741325
0.00741327
0.007414
0.00741347
0.00741271
0.00741102
0.00740736
0.00740891
0.00740512
0.00740959
0.00740564
0.00740824
0.00740681
0.0074076
0.0074066
0.00740868
0.0074177
0.0074221
0.00737568
0.0073156
0.00730486
0.00736267
0.00740539
0.00740824
0.00741282
0.00740951
0.00741265
0.00740967
0.00741624
0.00741383
0.00742344
0.0074142
0.0074245
0.00741488
0.00742284
0.00741426
0.00741482
0.00740815
0.00741266
0.00740676
0.00741525
0.00741079
0.00741609
0.00740409
0.00741523
0.00740582
0.00740805
0.00740552
0.00736279
0.00730474
0.00729266
0.00735227
0.00739254
0.00741487
0.0074224
0.00741976
0.00742916
0.00743578
0.00742928
0.00743681
0.00742435
0.00744756
0.00742625
0.00744821
0.0074319
0.00743772
0.00741565
0.0074325
0.00741016
0.00742629
0.00741383
0.00744268
0.00741602
0.00744068
0.00742829
0.0074222
0.00741083
0.00739314
0.00735183
0.00729231
0.00727467
0.0073356
0.00737977
0.00742632
0.00744708
0.00742974
0.00744939
0.00743182
0.00744902
0.00742737
0.00744685
0.00743099
0.00744583
0.0074288
0.00744294
0.00742433
0.00744595
0.00742563
0.00744577
0.00742771
0.007444
0.00742174
0.00744315
0.00742152
0.00743888
0.00742851
0.00742083
0.00737848
0.00733479
0.00727453
0.00726243
0.00731659
0.00735604
0.0074376
0.00743295
0.00744323
0.0074295
0.00744526
0.00743243
0.0074481
0.00742921
0.00743675
0.00742815
0.00744142
0.00742669
0.00743998
0.00742553
0.00744157
0.00742286
0.00744759
0.00742247
0.00743248
0.00742186
0.00743398
0.00742419
0.0074403
0.00742767
0.00735576
0.00731654
0.00726245
0.007252
0.00730226
0.00733828
0.00741255
0.007434
0.00742513
0.00743573
0.00743172
0.00744241
0.0074353
0.00745134
0.00743412
0.00744922
0.00743132
0.00744922
0.0074307
0.00743652
0.00742941
0.00743834
0.00742607
0.00743794
0.00742424
0.00744048
0.0074249
0.00743837
0.00742277
0.00742195
0.00733791
0.00730215
0.00725195
0.00724168
0.0072884
0.00732144
0.00733992
0.00741779
0.0074338
0.00742751
0.00744364
0.00743373
0.00745279
0.00743428
0.00746133
0.00743477
0.00745683
0.00743076
0.00745165
0.00743088
0.00744708
0.00742955
0.00744242
0.00742608
0.00745843
0.00742558
0.00745393
0.00742293
0.00742013
0.00735661
0.00732074
0.00728817
0.00724163
0.00723214
0.00727556
0.0073062
0.00732006
0.00740435
0.00736436
0.00737643
0.00738994
0.00739083
0.00737395
0.00742965
0.00742139
0.00744088
0.00742785
0.00743156
0.00742057
0.00745232
0.00742769
0.00745035
0.00740284
0.00744925
0.00742019
0.00744903
0.00741468
0.00739952
0.00732762
0.00731964
0.00730567
0.0072754
0.00723208
0.00722323
0.0072636
0.00729173
0.0073034
0.00731137
0.00731176
0.00731258
0.00731352
0.00731319
0.00731315
0.00731455
0.00731488
0.00731503
0.00732051
0.00731488
0.00731499
0.00732467
0.00733332
0.0073401
0.00731401
0.00731859
0.00731444
0.00731643
0.0073137
0.00731221
0.00730866
0.00730338
0.00729153
0.00726354
0.00722321
0.00721486
0.0072525
0.00727845
0.00728907
0.00729391
0.00729539
0.00729595
0.00729624
0.00729623
0.0072963
0.00729651
0.00729676
0.00729672
0.00729691
0.00729673
0.00729687
0.00729695
0.00729713
0.00729695
0.00729657
0.00729666
0.0072967
0.00729659
0.00729623
0.00729531
0.00729339
0.00728892
0.00727836
0.00725248
0.00721486
0.00720693
0.00724204
0.00726597
0.00727554
0.00727958
0.00728095
0.00728141
0.00728163
0.00728172
0.00728172
0.00728179
0.00728186
0.00728185
0.00728191
0.00728185
0.00728193
0.00728191
0.00728198
0.00728188
0.00728182
0.0072818
0.00728176
0.00728162
0.00728143
0.00728084
0.00727934
0.00727548
0.007266
0.00724205
0.00720693
0.0071994
0.00723203
0.00725431
0.00726301
0.00726651
0.00726773
0.00726811
0.00726825
0.00726833
0.00726836
0.00726837
0.00726835
0.00726836
0.00726838
0.00726837
0.0072684
0.00726838
0.00726845
0.00726845
0.00726839
0.0072684
0.00726841
0.00726834
0.00726819
0.00726773
0.00726645
0.00726298
0.0072543
0.00723205
0.00719943
0.00719219
0.00722275
0.00724339
0.00725139
0.00725453
0.00725562
0.00725598
0.00725608
0.00725608
0.00725608
0.00725605
0.00725606
0.00725605
0.00725606
0.00725607
0.00725608
0.00725609
0.00725612
0.00725613
0.00725615
0.00725617
0.00725618
0.00725615
0.00725603
0.00725566
0.00725453
0.00725137
0.00724337
0.00722273
0.00719215
0.00718559
0.00721398
0.00723311
0.00724043
0.00724326
0.00724423
0.00724451
0.00724459
0.0072446
0.00724458
0.00724454
0.0072445
0.00724447
0.00724447
0.00724447
0.00724448
0.00724453
0.00724461
0.00724464
0.00724466
0.00724467
0.00724469
0.00724467
0.00724458
0.00724427
0.00724327
0.00724041
0.00723308
0.00721395
0.00718556
0.00717934
0.00720571
0.00722337
0.00723006
0.0072326
0.00723345
0.0072337
0.00723374
0.00723374
0.00723372
0.00723369
0.00723365
0.00723362
0.00723362
0.00723362
0.00723362
0.00723365
0.00723374
0.00723376
0.00723379
0.0072338
0.00723381
0.00723382
0.00723376
0.0072335
0.00723263
0.00723005
0.00722336
0.0072057
0.00717932
0.00717338
0.00719787
0.00721415
0.00722025
0.00722252
0.00722324
0.00722345
0.00722348
0.00722347
0.00722344
0.00722344
0.0072234
0.00722339
0.00722339
0.00722339
0.00722339
0.00722342
0.00722346
0.00722348
0.00722349
0.0072235
0.00722351
0.00722354
0.0072235
0.00722329
0.00722255
0.00722025
0.00721416
0.00719787
0.00717338
0.00716771
0.00719039
0.00720538
0.0072109
0.00721294
0.00721354
0.00721372
0.00721372
0.0072137
0.00721367
0.00721366
0.00721366
0.00721368
0.00721367
0.00721368
0.00721369
0.00721368
0.00721368
0.00721369
0.00721369
0.00721369
0.00721368
0.00721369
0.00721366
0.00721351
0.00721292
0.00721092
0.00720538
0.0071904
0.00716771
0.00716229
0.00718326
0.00719702
0.00720202
0.00720376
0.0072043
0.00720444
0.00720441
0.00720435
0.00720435
0.00720436
0.00720439
0.00720441
0.00720442
0.00720441
0.00720442
0.0072044
0.00720435
0.00720432
0.00720433
0.00720427
0.00720426
0.00720428
0.0072043
0.00720425
0.00720379
0.00720205
0.00719703
0.00718326
0.00716228
0.00715707
0.00717641
0.00718907
0.00719352
0.00719499
0.00719533
0.00719542
0.00719535
0.00719535
0.00719541
0.00719554
0.00719565
0.00719566
0.00719568
0.00719565
0.00719567
0.00719562
0.0071954
0.00719535
0.00719527
0.00719527
0.00719531
0.00719532
0.00719538
0.00719533
0.00719497
0.00719353
0.00718905
0.0071764
0.00715709
0.00715199
0.00716987
0.00718143
0.00718543
0.00718644
0.0071862
0.00718632
0.00718594
0.00718601
0.00718578
0.0071858
0.00718584
0.00718563
0.00718578
0.00718568
0.00718582
0.00718574
0.00718572
0.0071858
0.00718579
0.00718584
0.007186
0.00718588
0.00718614
0.00718619
0.00718628
0.00718541
0.00718141
0.00716986
0.00715202
0.00714714
0.00716366
0.00717379
0.00717737
0.00717801
0.00717797
0.00717791
0.00717772
0.00717765
0.00717762
0.00717769
0.00717766
0.0071776
0.00717768
0.00717758
0.00717765
0.00717756
0.00717762
0.00717763
0.00717756
0.00717764
0.00717766
0.00717766
0.0071779
0.00717799
0.00717801
0.00717734
0.00717379
0.00716365
0.00714714
0.00714249
0.00715746
0.00716702
0.00717003
0.00717063
0.00717062
0.00717048
0.00717032
0.00717026
0.0071702
0.00717019
0.00717017
0.00717018
0.00717017
0.00717016
0.00717016
0.00717015
0.00717013
0.00717012
0.00717015
0.00717015
0.00717023
0.0071703
0.00717045
0.00717058
0.00717062
0.00717004
0.00716704
0.00715748
0.00714249
0.00713765
0.00715181
0.00716054
0.00716314
0.00716371
0.00716364
0.0071635
0.00716335
0.00716326
0.00716321
0.00716319
0.00716318
0.00716319
0.00716316
0.00716316
0.00716315
0.00716315
0.00716313
0.00716314
0.00716314
0.00716318
0.00716323
0.00716334
0.00716348
0.00716361
0.00716372
0.00716313
0.00716052
0.00715181
0.00713762
0.00713363
0.00714661
0.00715452
0.00715679
0.00715724
0.00715713
0.00715695
0.00715681
0.00715672
0.00715667
0.00715664
0.00715663
0.0071566
0.0071566
0.00715657
0.00715659
0.00715657
0.00715658
0.00715659
0.0071566
0.00715664
0.0071567
0.00715679
0.00715693
0.00715711
0.00715724
0.00715679
0.00715452
0.00714661
0.00713364
0.00712989
0.00714174
0.00714889
0.00715086
0.00715116
0.00715102
0.0071508
0.00715063
0.00715051
0.00715047
0.00715045
0.00715044
0.0071504
0.00715041
0.00715039
0.0071504
0.00715038
0.0071504
0.00715041
0.0071504
0.00715046
0.00715049
0.00715059
0.00715077
0.00715099
0.00715118
0.00715086
0.00714889
0.00714175
0.0071299
0.00712628
0.00713717
0.00714361
0.00714519
0.0071454
0.00714522
0.00714498
0.00714481
0.00714469
0.00714464
0.00714462
0.0071446
0.00714456
0.00714457
0.00714454
0.00714455
0.00714453
0.00714456
0.00714458
0.00714458
0.00714464
0.00714467
0.0071448
0.00714498
0.00714522
0.0071454
0.00714519
0.00714362
0.00713717
0.0071263
0.00712278
0.00713272
0.00713845
0.00713972
0.00713987
0.00713967
0.00713943
0.00713925
0.00713915
0.0071391
0.00713905
0.00713904
0.00713901
0.007139
0.00713898
0.00713898
0.00713897
0.00713899
0.00713901
0.00713903
0.00713908
0.00713914
0.00713924
0.00713944
0.00713968
0.00713988
0.00713971
0.00713842
0.00713273
0.00712278
0.00711934
0.00712843
0.00713324
0.00713444
0.00713454
0.00713435
0.00713409
0.00713393
0.00713383
0.00713376
0.0071337
0.00713368
0.00713367
0.00713363
0.00713363
0.00713362
0.00713363
0.00713363
0.00713365
0.00713369
0.00713374
0.00713381
0.00713392
0.00713409
0.00713436
0.00713455
0.00713444
0.00713325
0.0071284
0.00711934
0.00711595
0.00712393
0.00712829
0.00712932
0.00712944
0.00712927
0.00712897
0.00712885
0.00712871
0.00712866
0.00712856
0.00712855
0.00712855
0.00712849
0.00712852
0.00712847
0.00712852
0.0071285
0.00712853
0.00712856
0.00712863
0.00712868
0.00712885
0.00712897
0.00712927
0.00712947
0.00712933
0.00712829
0.00712392
0.00711596
0.00711258
0.00711996
0.00712347
0.00712423
0.00712399
0.00712344
0.00712273
0.00712284
0.00712239
0.00712258
0.0071222
0.00712231
0.00712242
0.0071222
0.00712241
0.00712209
0.0071224
0.00712227
0.00712239
0.00712231
0.0071225
0.00712234
0.00712297
0.00712282
0.00712342
0.00712407
0.00712423
0.00712347
0.0071199
0.00711258
0.00710881
0.00711542
0.00711802
0.0071185
0.00711727
0.0071166
0.00711615
0.00711591
0.0071157
0.00711565
0.00711555
0.00711553
0.00711552
0.00711547
0.00711553
0.00711549
0.00711551
0.00711551
0.00711554
0.00711556
0.00711566
0.00711571
0.00711594
0.00711616
0.00711661
0.00711728
0.00711846
0.007118
0.00711542
0.00710884
0.00710535
0.00711041
0.00711317
0.00711287
0.00711201
0.00711119
0.00711065
0.00711038
0.00711017
0.00711009
0.00711001
0.00710998
0.00710998
0.00710994
0.00710998
0.00710996
0.00710996
0.00710997
0.00710999
0.00711002
0.00711009
0.00711018
0.0071104
0.00711067
0.0071112
0.00711203
0.0071129
0.00711319
0.00711039
0.00710538
0.00709984
0.00710529
0.00710751
0.00710688
0.00710572
0.00710466
0.00710398
0.00710361
0.00710341
0.00710332
0.00710322
0.00710322
0.00710321
0.0071032
0.00710323
0.00710322
0.0071032
0.00710322
0.00710323
0.00710324
0.00710332
0.00710342
0.00710362
0.00710401
0.00710466
0.00710572
0.00710689
0.00710752
0.00710531
0.00709986
0.00709458
0.00709892
0.00710024
0.00709893
0.0070972
0.00709578
0.00709492
0.00709443
0.0070942
0.00709409
0.00709401
0.00709399
0.00709397
0.00709397
0.00709397
0.00709398
0.00709397
0.00709398
0.007094
0.00709402
0.00709409
0.00709421
0.00709444
0.00709494
0.00709579
0.00709723
0.00709893
0.00710026
0.00709893
0.00709457
0.00708671
0.00708977
0.00708928
0.00708629
0.00708341
0.00708121
0.00707987
0.00707912
0.00707872
0.00707858
0.00707847
0.00707845
0.00707843
0.00707841
0.00707842
0.00707842
0.00707842
0.00707844
0.00707845
0.00707847
0.00707858
0.00707873
0.00707912
0.00707989
0.00708121
0.00708344
0.00708632
0.00708929
0.00708978
0.00708672
0.00707262
0.00707324
0.00706972
0.00706363
0.00705799
0.007054
0.00705157
0.00705023
0.00704952
0.00704921
0.00704903
0.00704898
0.00704892
0.00704889
0.00704888
0.0070489
0.00704888
0.00704893
0.00704897
0.00704904
0.00704921
0.00704952
0.00705023
0.00705159