/*--------------------------------*- C++ -*----------------------------------*\
| =========                 |                                                 |
| \\      /  F ield         | OpenFOAM: The Open Source CFD Toolbox           |
|  \\    /   O peration     | Version:  2312                                  |
|   \\  /    A nd           | Website:  www.openfoam.com                      |
|    \\/     M anipulation  |                                                 |
\*---------------------------------------------------------------------------*/
FoamFile
{
    version     2.0;
    format      ascii;
    arch        "LSB;label=32;scalar=64";
    class       surfaceScalarField;
    location    "0.01";
    object      phi;
}
// * * * * * * * * * * * * * * * * * * * * * * * * * * * * * * * * * * * * * //

dimensions      [0 3 -1 0 0 0 0];

oriented        oriented;

internalField   nonuniform List<scalar> 
11770
(
3.54287e-06
4.32049e-05
4.04655e-06
4.61459e-05
3.73697e-06
4.69177e-05
3.24343e-06
4.70853e-05
2.69809e-06
4.71261e-05
2.19983e-06
4.70697e-05
1.77614e-06
4.69883e-05
1.42375e-06
4.69118e-05
1.13058e-06
4.68486e-05
8.833e-07
4.67998e-05
6.70686e-07
4.6763e-05
4.83048e-07
4.67365e-05
3.12813e-07
4.67181e-05
1.53462e-07
4.67066e-05
-6.57475e-10
4.6701e-05
-1.54785e-07
4.6701e-05
-3.14084e-07
4.67065e-05
-4.84226e-07
4.67179e-05
-6.71612e-07
4.67362e-05
-8.83839e-07
4.67625e-05
-1.13067e-06
4.67992e-05
-1.42341e-06
4.6848e-05
-1.77544e-06
4.69112e-05
-2.19896e-06
4.69879e-05
-2.69721e-06
4.70696e-05
-3.24267e-06
4.71261e-05
-3.73641e-06
4.70854e-05
-4.0462e-06
4.69178e-05
-3.54264e-06
4.61459e-05
4.32051e-05
1.8315e-06
4.22013e-05
2.92241e-06
4.59579e-05
3.03532e-06
4.76903e-05
2.67136e-06
4.8323e-05
2.22702e-06
4.84424e-05
1.81722e-06
4.83501e-05
1.47026e-06
4.82047e-05
1.18266e-06
4.8068e-05
9.42997e-07
4.79563e-05
7.39717e-07
4.78707e-05
5.63761e-07
4.78064e-05
4.07188e-07
4.77604e-05
2.64237e-07
4.77283e-05
1.29791e-07
4.77082e-05
-6.05741e-10
4.76986e-05
-1.31092e-07
4.76987e-05
-2.65524e-07
4.77081e-05
-4.08482e-07
4.77281e-05
-5.64786e-07
4.77597e-05
-7.40277e-07
4.78053e-05
-9.4306e-07
4.78695e-05
-1.18223e-06
4.79551e-05
-1.4694e-06
4.80669e-05
-1.81615e-06
4.8204e-05
-2.22604e-06
4.83499e-05
-2.6706e-06
4.84424e-05
-3.0348e-06
4.83232e-05
-2.92205e-06
4.76905e-05
-1.83132e-06
4.59581e-05
4.22015e-05
8.27943e-07
4.05945e-05
1.54142e-06
4.44843e-05
1.8156e-06
4.66682e-05
1.76036e-06
4.7634e-05
1.5598e-06
4.79004e-05
1.32032e-06
4.78484e-05
1.09193e-06
4.7693e-05
8.91486e-07
4.75293e-05
7.18398e-07
4.7391e-05
5.68305e-07
4.7283e-05
4.35934e-07
4.72014e-05
3.16399e-07
4.7143e-05
2.06095e-07
4.71019e-05
1.01405e-07
4.70764e-05
-5.00578e-10
4.70641e-05
-1.02634e-07
4.70644e-05
-2.07282e-07
4.70762e-05
-3.17855e-07
4.71019e-05
-4.37081e-07
4.71419e-05
-5.68846e-07
4.71997e-05
-7.18496e-07
4.72813e-05
-8.91079e-07
4.73891e-05
-1.09097e-06
4.75275e-05
-1.31898e-06
4.76918e-05
-1.55876e-06
4.78483e-05
-1.75955e-06
4.79006e-05
-1.81507e-06
4.76343e-05
-1.54111e-06
4.66685e-05
-8.27696e-07
4.44844e-05
4.05949e-05
4.52421e-07
3.93435e-05
7.50317e-07
4.33916e-05
9.5878e-07
4.56656e-05
1.04351e-06
4.67541e-05
1.01783e-06
4.713e-05
9.26104e-07
4.71439e-05
8.05228e-07
4.7018e-05
6.80881e-07
4.68583e-05
5.61753e-07
4.67153e-05
4.51944e-07
4.65985e-05
3.50742e-07
4.65087e-05
2.56652e-07
4.64434e-05
1.68399e-07
4.63967e-05
8.30152e-08
4.63685e-05
-4.36252e-10
4.63544e-05
-8.41805e-08
4.63549e-05
-1.69314e-07
4.6368e-05
-2.58381e-07
4.63975e-05
-3.52232e-07
4.64421e-05
-4.52628e-07
4.65061e-05
-5.62029e-07
4.65963e-05
-6.80447e-07
4.67126e-05
-8.04211e-07
4.68558e-05
-9.24564e-07
4.70161e-05
-1.01677e-06
4.71442e-05
-1.04232e-06
4.71299e-05
-9.582e-07
4.67549e-05
-7.50122e-07
4.56662e-05
-4.52094e-07
4.33915e-05
3.93442e-05
1.58016e-07
3.83776e-05
2.89472e-07
4.24561e-05
4.36144e-07
4.47166e-05
5.50101e-07
4.58378e-05
6.03032e-07
4.62743e-05
5.99734e-07
4.63442e-05
5.58079e-07
4.62568e-05
4.95615e-07
4.61182e-05
4.23307e-07
4.59853e-05
3.48882e-07
4.58709e-05
2.75706e-07
4.57801e-05
2.04132e-07
4.57134e-05
1.35399e-07
4.5664e-05
6.71106e-08
4.56354e-05
-1.361e-10
4.56202e-05
-6.8212e-08
4.56216e-05
-1.35973e-07
4.56343e-05
-2.05929e-07
4.56659e-05
-2.7767e-07
4.57121e-05
-3.50176e-07
4.57767e-05
-4.23865e-07
4.58678e-05
-4.9508e-07
4.59814e-05
-5.57091e-07
4.6115e-05
-5.98465e-07
4.62544e-05
-6.01777e-07
4.63443e-05
-5.48131e-07
4.62733e-05
-4.35425e-07
4.58397e-05
-2.89442e-07
4.47177e-05
-1.57786e-07
4.24557e-05
3.83783e-05
-4.46288e-08
3.7604e-05
-1.46479e-10
4.15974e-05
1.02706e-07
4.38017e-05
2.13441e-07
4.49158e-05
2.95115e-07
4.53815e-05
3.37253e-07
4.54909e-05
3.45391e-07
4.54376e-05
3.28006e-07
4.53246e-05
2.93207e-07
4.52094e-05
2.49791e-07
4.51037e-05
2.01965e-07
4.50173e-05
1.51894e-07
4.49529e-05
1.01628e-07
4.49037e-05
5.11078e-08
4.48754e-05
6.56006e-10
4.48601e-05
-5.23418e-08
4.48641e-05
-1.02802e-07
4.48742e-05
-1.53473e-07
4.4906e-05
-2.03967e-07
4.49519e-05
-2.51696e-07
4.50137e-05
-2.9386e-07
4.50991e-05
-3.27491e-07
4.52039e-05
-3.44366e-07
4.53206e-05
-3.35972e-07
4.54346e-05
-2.93233e-07
4.54902e-05
-2.11165e-07
4.53799e-05
-1.01615e-07
4.49187e-05
2.83274e-10
4.38037e-05
4.45962e-08
4.1597e-05
3.76046e-05
-1.69659e-07
3.69454e-05
-1.92071e-07
4.07958e-05
-1.23953e-07
4.29121e-05
-2.64732e-08
4.39978e-05
6.43984e-08
4.44707e-05
1.30902e-07
4.46048e-05
1.67754e-07
4.45813e-05
1.82975e-07
4.44901e-05
1.75092e-07
4.43977e-05
1.57941e-07
4.43011e-05
1.32289e-07
4.42229e-05
1.01595e-07
4.41634e-05
6.88301e-08
4.41163e-05
3.47482e-08
4.40895e-05
3.38102e-10
4.40746e-05
-3.63242e-08
4.40805e-05
-7.02605e-08
4.4088e-05
-1.03062e-07
4.41185e-05
-1.32661e-07
4.41613e-05
-1.60109e-07
4.4221e-05
-1.76403e-07
4.42953e-05
-1.81871e-07
4.43892e-05
-1.666e-07
4.44849e-05
-1.28952e-07
4.45765e-05
-6.27299e-08
4.46036e-05
2.8315e-08
4.44685e-05
1.25901e-07
4.40005e-05
1.92786e-07
4.29152e-05
1.6963e-07
4.07961e-05
3.69459e-05
-2.44083e-07
3.6352e-05
-3.22386e-07
4.00409e-05
-2.85557e-07
4.20447e-05
-2.03835e-07
4.3087e-05
-1.1339e-07
4.35523e-05
-3.044e-08
4.37034e-05
2.2198e-08
4.37011e-05
6.31516e-08
4.363e-05
7.22723e-08
4.35464e-05
7.45903e-08
4.34637e-05
6.96696e-08
4.33955e-05
5.62698e-08
4.33437e-05
3.78116e-08
4.33044e-05
2.07783e-08
4.32834e-05
-5.48847e-10
4.32684e-05
-2.12347e-08
4.32708e-05
-4.00976e-08
4.32755e-05
-5.68584e-08
4.33042e-05
-6.67488e-08
4.33387e-05
-7.77751e-08
4.33953e-05
-7.4973e-08
4.34587e-05
-5.91883e-08
4.35398e-05
-2.21166e-08
4.36176e-05
3.37357e-08
4.36885e-05
1.12109e-07
4.36922e-05
2.04614e-07
4.35463e-05
2.88048e-07
4.30872e-05
3.23824e-07
4.20486e-05
2.44407e-07
4.00422e-05
3.63528e-05
-2.898e-07
3.57955e-05
-4.12461e-07
3.93215e-05
-4.06433e-07
4.11995e-05
-3.33655e-07
4.21855e-05
-2.51659e-07
4.26241e-05
-1.54487e-07
4.27921e-05
-9.72907e-08
4.2791e-05
-4.21376e-08
4.27403e-05
-1.32544e-08
4.26636e-05
3.16297e-09
4.25939e-05
1.51274e-08
4.25396e-05
1.67777e-08
4.24988e-05
9.24901e-09
4.24707e-05
1.29634e-08
4.24652e-05
-4.78125e-09
4.24379e-05
-8.55111e-09
4.24505e-05
-1.37379e-08
4.24536e-05
-1.36604e-08
4.24778e-05
-1.12181e-08
4.25e-05
-4.62692e-09
4.25506e-05
1.01445e-08
4.25991e-05
4.06523e-08
4.26721e-05
9.45849e-08
4.27425e-05
1.64976e-07
4.27929e-05
2.45511e-07
4.27727e-05
3.3809e-07
4.26236e-05
4.07109e-07
4.21785e-05
4.13865e-07
4.12025e-05
2.90387e-07
3.93236e-05
3.57969e-05
-3.18916e-07
3.52599e-05
-4.72534e-07
3.86249e-05
-4.8933e-07
4.03689e-05
-4.3187e-07
4.12692e-05
-3.44583e-07
4.16845e-05
-2.59479e-07
4.18429e-05
-1.90491e-07
4.18503e-05
-1.35207e-07
4.18197e-05
-9.02175e-08
4.17632e-05
-5.12959e-08
4.17183e-05
-3.03308e-08
4.16854e-05
-1.22663e-08
4.16532e-05
-2.58185e-09
4.16205e-05
-3.41768e-09
4.16025e-05
-1.63296e-09
4.15828e-05
-7.50505e-10
4.15979e-05
1.08996e-08
4.16119e-05
1.88464e-08
4.1627e-05
3.93448e-08
4.16487e-05
5.13852e-08
4.16726e-05
8.29441e-08
4.17178e-05
1.25817e-07
4.17821e-05
1.84322e-07
4.18441e-05
2.57807e-07
4.18828e-05
3.50216e-07
4.18592e-05
4.32779e-07
4.16972e-05
4.92676e-07
4.12755e-05
4.74065e-07
4.03737e-05
3.19547e-07
3.86279e-05
3.5262e-05
-3.35912e-07
3.47342e-05
-5.08025e-07
3.79393e-05
-5.48436e-07
3.95541e-05
-4.9873e-07
4.0359e-05
-4.09335e-07
4.07451e-05
-3.50013e-07
4.08799e-05
-2.54001e-07
4.09253e-05
-2.06732e-07
4.08941e-05
-1.4077e-07
4.08743e-05
-9.32029e-08
4.08421e-05
-6.66166e-08
4.08136e-05
-4.09774e-08
4.0785e-05
-1.3199e-08
4.07464e-05
-2.17633e-08
4.07088e-05
6.81884e-09
4.07101e-05
1.3696e-08
4.07121e-05
2.97425e-08
4.07282e-05
4.15306e-08
4.07418e-05
6.93222e-08
4.07737e-05
1.00684e-07
4.08014e-05
1.46166e-07
4.08315e-05
2.01628e-07
4.08806e-05
2.56303e-07
4.09121e-05
3.22872e-07
4.09377e-05
4.17244e-07
4.09209e-05
4.96028e-07
4.07647e-05
5.48356e-07
4.03742e-05
5.08088e-07
3.95592e-05
3.35874e-07
3.79425e-05
3.47363e-05
-3.44017e-07
3.42099e-05
-5.19404e-07
3.725e-05
-5.83659e-07
3.87563e-05
-5.43257e-07
3.94623e-05
-4.66249e-07
3.98173e-05
-3.94942e-07
3.99462e-05
-3.12223e-07
4.00016e-05
-2.37604e-07
3.99895e-05
-1.77303e-07
3.99725e-05
-1.29143e-07
3.99451e-05
-9.53061e-08
3.99101e-05
-7.03396e-08
3.98804e-05
-4.28238e-08
3.98536e-05
-2.65757e-08
3.98188e-05
1.52564e-08
3.98353e-05
3.0306e-08
3.9804e-05
4.46388e-08
3.98075e-05
6.59686e-08
3.98273e-05
9.3257e-08
3.98598e-05
1.4143e-07
3.99025e-05
1.93628e-07
3.99259e-05
2.52303e-07
3.99476e-05
3.10215e-07
3.99593e-05
3.76167e-07
3.99671e-05
4.57265e-07
3.99468e-05
5.32603e-07
3.98168e-05
5.76764e-07
3.94683e-05
5.16945e-07
3.87574e-05
3.42847e-07
3.72523e-05
3.42111e-05
-3.45933e-07
3.36816e-05
-5.14254e-07
3.65476e-05
-5.90347e-07
3.7964e-05
-5.65474e-07
3.85739e-05
-5.09863e-07
3.88832e-05
-4.11925e-07
3.90305e-05
-3.49857e-07
3.90625e-05
-2.58872e-07
3.90694e-05
-2.0374e-07
3.90411e-05
-1.60528e-07
3.90111e-05
-1.19497e-07
3.89758e-05
-9.52111e-08
3.89457e-05
-7.46966e-08
3.89366e-05
-1.76676e-08
3.89431e-05
-6.07505e-09
3.89308e-05
3.74093e-08
3.89322e-05
5.94961e-08
3.8922e-05
9.81272e-08
3.89405e-05
1.23254e-07
3.89524e-05
1.72714e-07
3.89878e-05
2.17554e-07
3.90127e-05
2.74502e-07
3.90343e-05
3.41848e-07
3.90466e-05
4.27221e-07
3.90466e-05
4.89509e-07
3.89951e-05
5.5694e-07
3.88731e-05
5.80161e-07
3.85725e-05
5.09455e-07
3.796e-05
3.43894e-07
3.65473e-05
3.36809e-05
-3.43679e-07
3.31459e-05
-5.04956e-07
3.58328e-05
-5.67921e-07
3.71531e-05
-5.7226e-07
3.77066e-05
-5.1116e-07
3.79492e-05
-4.34877e-07
3.80827e-05
-3.5549e-07
3.81142e-05
-2.89971e-07
3.81079e-05
-2.36114e-07
3.80873e-05
-1.84623e-07
3.8074e-05
-1.47687e-07
3.80551e-05
-1.04673e-07
3.80399e-05
-7.07443e-08
3.80331e-05
-2.64858e-08
3.8038e-05
-9.61812e-09
3.80238e-05
2.98888e-08
3.80287e-05
7.31503e-08
3.80336e-05
1.16418e-07
3.80418e-05
1.53953e-07
3.80496e-05
1.93418e-07
3.80586e-05
2.3762e-07
3.80863e-05
2.89243e-07
3.81048e-05
3.61544e-07
3.81192e-05
4.40267e-07
3.81163e-05
5.09073e-07
3.80744e-05
5.63378e-07
3.79458e-05
5.60675e-07
3.77043e-05
4.99779e-07
3.71472e-05
3.41505e-07
3.58297e-05
3.31432e-05
-3.40712e-07
3.26028e-05
-4.96564e-07
3.5108e-05
-5.38398e-07
3.63163e-05
-5.52843e-07
3.68441e-05
-4.95869e-07
3.70432e-05
-4.3892e-07
3.71268e-05
-3.74168e-07
3.71527e-05
-3.09267e-07
3.71524e-05
-2.52193e-07
3.71476e-05
-2.0499e-07
3.71366e-05
-1.61785e-07
3.71398e-05
-1.08925e-07
3.71225e-05
-6.09305e-08
3.7137e-05
-3.97645e-08
3.71137e-05
-1.10227e-08
3.71198e-05
3.34071e-08
3.71081e-05
8.02904e-08
3.71237e-05
1.22899e-07
3.71249e-05
1.69255e-07
3.71557e-05
2.09563e-07
3.71448e-05
2.51296e-07
3.71645e-05
3.06853e-07
3.71783e-05
3.70757e-07
3.71739e-05
4.43626e-07
3.71751e-05
5.05124e-07
3.71711e-05
5.35964e-07
3.70372e-05
5.33142e-07
3.683e-05
4.93103e-07
3.63087e-05
3.39143e-07
3.51032e-05
3.25987e-05
-3.39237e-07
3.20547e-05
-4.89757e-07
3.43742e-05
-5.23803e-07
3.54678e-05
-5.07527e-07
3.59459e-05
-4.78166e-07
3.61165e-05
-4.28147e-07
3.62005e-05
-3.70562e-07
3.62325e-05
-3.25054e-07
3.62156e-05
-2.5806e-07
3.62367e-05
-2.16046e-07
3.62206e-05
-1.63036e-07
3.62257e-05
-1.06389e-07
3.62094e-05
-7.89499e-08
3.62113e-05
-4.03305e-08
3.62196e-05
-4.95147e-10
3.62114e-05
4.14737e-08
3.61849e-05
7.59359e-08
3.61856e-05
1.1569e-07
3.61867e-05
1.61031e-07
3.62198e-05
2.0749e-07
3.62133e-05
2.68483e-07
3.62357e-05
3.16843e-07
3.62239e-05
3.75885e-07
3.62212e-05
4.366e-07
3.62283e-05
4.70343e-07
3.62119e-05
5.117e-07
3.61276e-05
5.24577e-07
3.59354e-05
4.89429e-07
3.54613e-05
3.38665e-07
3.43696e-05
3.205e-05
-3.34642e-07
3.14993e-05
-4.84736e-07
3.36371e-05
-5.26609e-07
3.46242e-05
-5.06072e-07
3.50407e-05
-4.68429e-07
3.51939e-05
-4.22571e-07
3.52699e-05
-3.70956e-07
3.52956e-05
-3.2386e-07
3.52847e-05
-2.75227e-07
3.529e-05
-2.15257e-07
3.52864e-05
-1.60434e-07
3.52838e-05
-1.2364e-07
3.52684e-05
-7.90687e-08
3.52754e-05
-4.43048e-08
3.52774e-05
2.25738e-09
3.52707e-05
3.0342e-08
3.5254e-05
6.92954e-08
3.52587e-05
1.10341e-07
3.52638e-05
1.50704e-07
3.52772e-05
2.156e-07
3.52815e-05
2.63145e-07
3.52891e-05
3.28307e-07
3.52848e-05
3.82337e-07
3.52858e-05
4.20354e-07
3.52922e-05
4.81684e-07
3.52714e-05
5.22394e-07
3.52025e-05
5.33771e-07
3.50391e-05
4.87834e-07
3.46216e-05
3.35758e-07
3.36345e-05
3.14958e-05
-3.24803e-07
3.09323e-05
-4.77879e-07
3.2901e-05
-5.29157e-07
3.37879e-05
-5.22717e-07
3.41473e-05
-4.89631e-07
3.42738e-05
-4.38352e-07
3.43291e-05
-3.82219e-07
3.43459e-05
-3.26083e-07
3.43417e-05
-2.80279e-07
3.43433e-05
-2.18549e-07
3.43457e-05
-1.68148e-07
3.43431e-05
-1.25958e-07
3.43365e-05
-7.99622e-08
3.43359e-05
-4.48704e-08
3.43326e-05
-2.45766e-09
3.4331e-05
3.24039e-08
3.43254e-05
7.49895e-08
3.43266e-05
1.2159e-07
3.43319e-05
1.58451e-07
3.43374e-05
2.22814e-07
3.43454e-05
2.67379e-07
3.43441e-05
3.29901e-07
3.43445e-05
3.87647e-07
3.43434e-05
4.38147e-07
3.43453e-05
4.97411e-07
3.43302e-05
5.3295e-07
3.42799e-05
5.36079e-07
3.41489e-05
4.81794e-07
3.37882e-05
3.26832e-07
3.29003e-05
3.09308e-05
-3.15403e-07
3.03551e-05
-4.69269e-07
3.21646e-05
-5.25205e-07
3.29549e-05
-5.24703e-07
3.32584e-05
-4.94672e-07
3.33553e-05
-4.46954e-07
3.33913e-05
-3.85e-07
3.34001e-05
-3.30689e-07
3.33983e-05
-2.76036e-07
3.3398e-05
-2.23431e-07
3.34005e-05
-1.73502e-07
3.33983e-05
-1.29747e-07
3.33967e-05
-8.51094e-08
3.33948e-05
-4.24327e-08
3.33917e-05
-9.20492e-10
3.33913e-05
3.7533e-08
3.33901e-05
8.13766e-08
3.33925e-05
1.24151e-07
3.33971e-05
1.70796e-07
3.33995e-05
2.19234e-07
3.34068e-05
2.74019e-07
3.34019e-05
3.2834e-07
3.34018e-05
3.85568e-07
3.33985e-05
4.47355e-07
3.33981e-05
4.99336e-07
3.33902e-05
5.31675e-07
3.33592e-05
5.30379e-07
3.32617e-05
4.72546e-07
3.29571e-05
3.17038e-07
3.21655e-05
3.03552e-05
-3.05838e-07
2.97681e-05
-4.57567e-07
3.14257e-05
-5.14565e-07
3.21225e-05
-5.18598e-07
3.23734e-05
-4.89964e-07
3.24376e-05
-4.42593e-07
3.24521e-05
-3.84543e-07
3.24477e-05
-3.30624e-07
3.24551e-05
-2.73353e-07
3.24517e-05
-2.25328e-07
3.24622e-05
-1.76593e-07
3.24589e-05
-1.3145e-07
3.24672e-05
-8.75433e-08
3.24633e-05
-4.07734e-08
3.24592e-05
1.49679e-09
3.24629e-05
4.46729e-08
3.24675e-05
8.60126e-08
3.24651e-05
1.27092e-07
3.2469e-05
1.78641e-07
3.24636e-05
2.15914e-07
3.24672e-05
2.73146e-07
3.24548e-05
3.25586e-07
3.24633e-05
3.80441e-07
3.2452e-05
4.43025e-07
3.24453e-05
4.92343e-07
3.24474e-05
5.23647e-07
3.24387e-05
5.17606e-07
3.23788e-05
4.59509e-07
3.21258e-05
3.06778e-07
3.14276e-05
2.97691e-05
-2.95673e-07
2.91716e-05
-4.41972e-07
3.06818e-05
-4.9486e-07
3.12863e-05
-5.03367e-07
3.14932e-05
-4.77687e-07
3.15202e-05
-4.32067e-07
3.15126e-05
-3.73004e-07
3.15029e-05
-3.26104e-07
3.15088e-05
-2.64226e-07
3.15156e-05
-2.25367e-07
3.15164e-05
-1.74842e-07
3.15227e-05
-1.32808e-07
3.15284e-05
-8.84295e-08
3.15338e-05
-3.70909e-08
3.15375e-05
5.98768e-09
3.15365e-05
4.76282e-08
3.15404e-05
9.03864e-08
3.15413e-05
1.28613e-07
3.15336e-05
1.80315e-07
3.15262e-05
2.0925e-07
3.15139e-05
2.70967e-07
3.15142e-05
3.16205e-07
3.15111e-05
3.66885e-07
3.15084e-05
4.31415e-07
3.15064e-05
4.79753e-07
3.15069e-05
5.05049e-07
3.15251e-05
4.95019e-07
3.15002e-05
4.42014e-07
3.12897e-05
2.9576e-07
3.06837e-05
2.91728e-05
-2.85899e-07
2.85668e-05
-4.2358e-07
2.99306e-05
-4.6832e-07
3.04431e-05
-4.72031e-07
3.06092e-05
-4.57642e-07
3.0621e-05
-4.13207e-07
3.0572e-05
-3.62099e-07
3.05614e-05
-3.08286e-07
3.05694e-05
-2.63693e-07
3.05709e-05
-2.17126e-07
3.05816e-05
-1.73372e-07
3.05871e-05
-1.26958e-07
3.05996e-05
-8.18455e-08
3.06028e-05
-4.0016e-08
3.06048e-05
8.09093e-09
3.06099e-05
5.45234e-08
3.06123e-05
8.65865e-08
3.06036e-05
1.2864e-07
3.05974e-05
1.68143e-07
3.0589e-05
2.1324e-07
3.05777e-05
2.57786e-07
3.05734e-05
3.06746e-07
3.05673e-05
3.60332e-07
3.05692e-05
4.08393e-07
3.05614e-05
4.59935e-07
3.05724e-05
4.69445e-07
3.06281e-05
4.64699e-07
3.06172e-05
4.21673e-07
3.04448e-05
2.85158e-07
2.99313e-05
2.85672e-05
-2.77168e-07
2.79555e-05
-4.05737e-07
2.91723e-05
-4.42973e-07
2.95943e-05
-4.31563e-07
2.97119e-05
-4.23175e-07
2.97268e-05
-3.94704e-07
2.96733e-05
-3.42694e-07
2.96265e-05
-2.98828e-07
2.9637e-05
-2.53147e-07
2.96392e-05
-2.07492e-07
2.96446e-05
-1.63388e-07
2.9655e-05
-1.24778e-07
2.96613e-05
-7.97085e-08
2.96694e-05
-3.37316e-08
2.96741e-05
1.19133e-08
2.96752e-05
4.8162e-08
2.96766e-05
8.42451e-08
2.96832e-05
1.23021e-07
2.96655e-05
1.58431e-07
2.96549e-05
2.09969e-07
2.96535e-05
2.47116e-07
2.96412e-05
2.97358e-07
2.96289e-05
3.43603e-07
2.96346e-05
3.92622e-07
2.9628e-05
4.21889e-07
2.96686e-05
4.24802e-07
2.97391e-05
4.36906e-07
2.97191e-05
4.02742e-07
2.9593e-05
2.75969e-07
2.91712e-05
2.79548e-05
-2.69592e-07
2.73397e-05
-3.91399e-07
2.84101e-05
-4.25247e-07
2.87449e-05
-4.06351e-07
2.88098e-05
-3.69915e-07
2.88068e-05
-3.60965e-07
2.87753e-05
-3.18309e-07
2.87116e-05
-2.91715e-07
2.87432e-05
-2.43335e-07
2.87032e-05
-1.96997e-07
2.87237e-05
-1.56234e-07
2.87184e-05
-1.17317e-07
2.87458e-05
-7.52517e-08
2.87339e-05
-3.10604e-08
2.87434e-05
1.60392e-08
2.87446e-05
5.06103e-08
2.8768e-05
7.29804e-08
2.87705e-05
1.09781e-07
2.87542e-05
1.6147e-07
2.87342e-05
1.94039e-07
2.87317e-05
2.37856e-07
2.87245e-05
2.90809e-07
2.87033e-05
3.22883e-07
2.87417e-05
3.56098e-07
2.87236e-05
3.66187e-07
2.87688e-05
3.96603e-07
2.88254e-05
4.19748e-07
2.88126e-05
3.88662e-07
2.87408e-05
2.68496e-07
2.84074e-05
2.73378e-05
-2.6363e-07
2.67218e-05
-3.80908e-07
2.76471e-05
-4.1473e-07
2.7899e-05
-3.99427e-07
2.79148e-05
-3.52008e-07
2.78794e-05
-3.09723e-07
2.78525e-05
-2.96223e-07
2.77956e-05
-2.70665e-07
2.78159e-05
-2.28649e-07
2.77804e-05
-1.94275e-07
2.77961e-05
-1.49849e-07
2.77936e-05
-1.14907e-07
2.78147e-05
-7.41703e-08
2.78077e-05
-3.22988e-08
2.7819e-05
2.87295e-09
2.78108e-05
3.76831e-08
2.78388e-05
7.61502e-08
2.78457e-05
1.13532e-07
2.78308e-05
1.53866e-07
2.78045e-05
1.94008e-07
2.78068e-05
2.32133e-07
2.7793e-05
2.70764e-07
2.77783e-05
2.94788e-07
2.7811e-05
3.11419e-07
2.78129e-05
3.43584e-07
2.78531e-05
3.93696e-07
2.78963e-05
4.12574e-07
2.7914e-05
3.79729e-07
2.78939e-05
2.63164e-07
2.76436e-05
2.67194e-05
-2.5906e-07
2.61038e-05
-3.72502e-07
2.68847e-05
-4.07016e-07
2.70582e-05
-3.97412e-07
2.70298e-05
-3.62094e-07
2.69683e-05
-3.14602e-07
2.69288e-05
-2.87663e-07
2.68956e-05
-2.43037e-07
2.68887e-05
-2.21214e-07
2.6879e-05
-1.84783e-07
2.68858e-05
-1.52647e-07
2.68884e-05
-1.09149e-07
2.68958e-05
-7.40859e-08
2.68982e-05
-4.28275e-08
2.69039e-05
-9.81305e-09
2.69025e-05
2.98945e-08
2.6911e-05
7.70159e-08
2.69149e-05
1.15999e-07
2.69084e-05
1.47862e-07
2.68969e-05
1.88551e-07
2.6893e-05
2.24262e-07
2.68867e-05
2.47828e-07
2.68814e-05
2.87252e-07
2.68894e-05
3.17656e-07
2.69003e-05
3.57554e-07
2.69341e-05
3.9707e-07
2.69806e-05
4.07994e-07
2.70276e-05
3.73008e-07
2.70535e-05
2.59304e-07
2.68815e-05
2.61017e-05
-2.52693e-07
2.54849e-05
-3.63612e-07
2.6125e-05
-3.98358e-07
2.62228e-05
-3.91713e-07
2.61529e-05
-3.6222e-07
2.60681e-05
-3.22153e-07
2.60176e-05
-2.85133e-07
2.5989e-05
-2.44261e-07
2.59765e-05
-2.1485e-07
2.59745e-05
-1.79694e-07
2.59808e-05
-1.44557e-07
2.5984e-05
-1.07628e-07
2.59882e-05
-7.17842e-08
2.59919e-05
-4.15476e-08
2.59948e-05
-5.71255e-09
2.59961e-05
3.22279e-08
2.59963e-05
7.44671e-08
2.59943e-05
1.09631e-07
2.59928e-05
1.43233e-07
2.59911e-05
1.78429e-07
2.59882e-05
2.13082e-07
2.59845e-05
2.45758e-07
2.598e-05
2.84446e-07
2.59785e-05
3.20572e-07
2.59883e-05
3.61174e-07
2.60209e-05
3.93088e-07
2.60771e-05
4.01118e-07
2.61492e-05
3.65283e-07
2.62191e-05
2.53401e-07
2.61227e-05
2.54834e-05
-2.42192e-07
2.48615e-05
-3.51976e-07
2.53702e-05
-3.87969e-07
2.53945e-05
-3.82886e-07
2.52834e-05
-3.57104e-07
2.51775e-05
-3.18085e-07
2.51142e-05
-2.81982e-07
2.50849e-05
-2.40754e-07
2.50713e-05
-2.07476e-07
2.50748e-05
-1.7418e-07
2.50798e-05
-1.40544e-07
2.50848e-05
-1.04394e-07
2.50897e-05
-7.16054e-08
2.50922e-05
-3.84818e-08
2.50941e-05
-7.8781e-09
2.50968e-05
3.09488e-08
2.50983e-05
7.3414e-08
2.50977e-05
1.10675e-07
2.50971e-05
1.40219e-07
2.50913e-05
1.72328e-07
2.50857e-05
2.03926e-07
2.50826e-05
2.38502e-07
2.50792e-05
2.77858e-07
2.50729e-05
3.15878e-07
2.5083e-05
3.56307e-07
2.51151e-05
3.8509e-07
2.51795e-05
3.92021e-07
2.52777e-05
3.5443e-07
2.53924e-05
2.43249e-07
2.53692e-05
2.4861e-05
-2.30518e-07
2.42333e-05
-3.37523e-07
2.46193e-05
-3.73691e-07
2.45731e-05
-3.7175e-07
2.44237e-05
-3.47112e-07
2.42945e-05
-3.08615e-07
2.42242e-05
-2.73597e-07
2.41932e-05
-2.33954e-07
2.41779e-05
-2.00798e-07
2.41832e-05
-1.68687e-07
2.41871e-05
-1.35277e-07
2.41949e-05
-1.02253e-07
2.41978e-05
-6.87919e-08
2.42011e-05
-3.7396e-08
2.41985e-05
-5.30534e-09
2.42076e-05
3.3215e-08
2.42099e-05
6.97589e-08
2.42047e-05
1.0506e-07
2.42043e-05
1.36038e-07
2.41986e-05
1.66816e-07
2.41899e-05
1.98253e-07
2.41867e-05
2.28722e-07
2.41782e-05
2.68909e-07
2.41778e-05
3.06953e-07
2.41903e-05
3.43285e-07
2.42188e-05
3.73793e-07
2.42883e-05
3.786e-07
2.44151e-05
3.40417e-07
2.45728e-05
2.31881e-07
2.46197e-05
2.4234e-05
-2.19948e-07
2.3602e-05
-3.20538e-07
2.38694e-05
-3.52483e-07
2.37547e-05
-3.54521e-07
2.35753e-05
-3.29025e-07
2.34186e-05
-2.93693e-07
2.33362e-05
-2.61604e-07
2.3302e-05
-2.28082e-07
2.32946e-05
-1.93739e-07
2.32971e-05
-1.6231e-07
2.32993e-05
-1.32147e-07
2.33061e-05
-9.88287e-08
2.33122e-05
-6.85547e-08
2.33152e-05
-3.0962e-08
2.33178e-05
-2.31057e-10
2.33176e-05
3.26583e-08
2.33164e-05
6.23597e-08
2.33174e-05
9.71809e-08
2.33179e-05
1.28859e-07
2.33116e-05
1.63458e-07
2.33063e-05
1.89763e-07
2.32965e-05
2.23851e-07
2.32915e-05
2.57174e-07
2.32924e-05
2.91894e-07
2.33024e-05
3.26877e-07
2.33377e-05
3.57247e-07
2.34007e-05
3.57993e-07
2.35638e-05
3.23536e-07
2.37568e-05
2.2131e-07
2.38713e-05
2.3604e-05
-2.10467e-07
2.29694e-05
-3.02907e-07
2.31193e-05
-3.27714e-07
2.29371e-05
-3.25256e-07
2.27304e-05
-3.08706e-07
2.25596e-05
-2.77716e-07
2.24551e-05
-2.47972e-07
2.24291e-05
-2.1727e-07
2.24145e-05
-1.8898e-07
2.24226e-05
-1.57327e-07
2.24246e-05
-1.2663e-07
2.24298e-05
-9.60278e-08
2.2435e-05
-6.334e-08
2.24412e-05
-3.25015e-08
2.24413e-05
6.98046e-11
2.24455e-05
3.30413e-08
2.24397e-05
6.38844e-08
2.24345e-05
8.60663e-08
2.24307e-05
1.24948e-07
2.24358e-05
1.55011e-07
2.24303e-05
1.84546e-07
2.24301e-05
2.13764e-07
2.24193e-05
2.44688e-07
2.24162e-05
2.76166e-07
2.24321e-05
3.03065e-07
2.24592e-05
3.38145e-07
2.25416e-05
3.32903e-07
2.27265e-05
3.05405e-07
2.29418e-05
2.11493e-07
2.31226e-05
2.29723e-05
-2.01943e-07
2.2337e-05
-2.87529e-07
2.2371e-05
-3.06835e-07
2.21227e-05
-2.92853e-07
2.18824e-05
-2.82533e-07
2.17154e-05
-2.54224e-07
2.15849e-05
-2.41959e-07
2.15728e-05
-1.99786e-07
2.15386e-05
-1.83053e-07
2.15676e-05
-1.51344e-07
2.15555e-05
-1.22231e-07
2.15578e-05
-9.0095e-08
2.15656e-05
-6.2974e-08
2.1574e-05
-2.69856e-08
2.1576e-05
-7.95938e-09
2.1582e-05
2.75822e-08
2.15668e-05
6.15134e-08
2.15648e-05
8.81573e-08
2.15673e-05
1.19073e-07
2.15688e-05
1.55301e-07
2.15664e-05
1.71745e-07
2.15752e-05
2.01478e-07
2.15642e-05
2.36093e-07
2.15494e-05
2.50864e-07
2.15689e-05
2.92925e-07
2.15977e-05
3.02149e-07
2.16951e-05
3.08201e-07
2.18862e-05
2.88237e-07
2.21278e-05
2.02193e-07
2.23746e-05
2.23401e-05
-1.94665e-07
2.17068e-05
-2.75732e-07
2.16275e-05
-2.93568e-07
2.13159e-05
-2.75864e-07
2.10397e-05
-2.60049e-07
2.08712e-05
-2.43034e-07
2.07566e-05
-2.18271e-07
2.0737e-05
-1.95481e-07
2.06923e-05
-1.67136e-07
2.07186e-05
-1.40868e-07
2.07032e-05
-1.12333e-07
2.07069e-05
-8.21949e-08
2.0713e-05
-5.51132e-08
2.07184e-05
-3.17672e-08
2.07142e-05
5.82952e-10
2.07353e-05
2.62176e-08
2.07089e-05
4.95634e-08
2.07123e-05
8.71066e-08
2.07272e-05
1.14966e-07
2.07137e-05
1.39845e-07
2.07094e-05
1.69193e-07
2.07211e-05
1.90964e-07
2.07071e-05
2.14435e-07
2.07044e-05
2.49973e-07
2.07335e-05
2.67338e-07
2.07557e-05
2.71516e-07
2.08599e-05
2.90586e-07
2.1042e-05
2.7446e-07
2.13192e-05
1.94131e-07
2.16303e-05
2.17093e-05
-1.88826e-07
2.10807e-05
-2.67442e-07
2.08914e-05
-2.87307e-07
2.05209e-05
-2.76928e-07
2.02141e-05
-2.51111e-07
2.00329e-05
-2.3984e-07
1.99304e-05
-2.07481e-07
1.98883e-05
-1.88671e-07
1.98645e-05
-1.53041e-07
1.98676e-05
-1.28101e-07
1.98641e-05
-1.00233e-07
1.98683e-05
-7.8166e-08
1.98698e-05
-5.04076e-08
1.98747e-05
-2.55028e-08
1.98742e-05
4.29078e-09
1.98821e-05
2.66977e-08
1.98723e-05
4.85523e-08
1.98715e-05
7.39266e-08
1.9876e-05
1.02754e-07
1.98666e-05
1.2774e-07
1.98703e-05
1.63463e-07
1.98671e-05
1.90162e-07
1.98625e-05
2.09417e-07
1.9864e-05
2.398e-07
1.98814e-05
2.51277e-07
1.9926e-05
2.68443e-07
2.00274e-05
2.82742e-07
2.02126e-05
2.65142e-07
2.0522e-05
1.87858e-07
2.08929e-05
2.10822e-05
-1.83727e-07
2.046e-05
-2.60131e-07
2.01635e-05
-2.81451e-07
1.97378e-05
-2.75646e-07
1.94034e-05
-2.53429e-07
1.92048e-05
-2.31228e-07
1.91005e-05
-2.05909e-07
1.90543e-05
-1.78026e-07
1.90361e-05
-1.51303e-07
1.90334e-05
-1.24913e-07
1.90331e-05
-9.59084e-08
1.90376e-05
-7.62425e-08
1.90366e-05
-4.88392e-08
1.90415e-05
-2.29842e-08
1.90429e-05
1.0267e-09
1.90469e-05
2.55472e-08
1.90425e-05
4.8816e-08
1.90409e-05
7.37884e-08
1.90419e-05
9.81939e-08
1.90337e-05
1.25629e-07
1.90336e-05
1.54533e-07
1.90293e-05
1.82932e-07
1.90268e-05
2.06561e-07
1.90292e-05
2.29211e-07
1.90453e-05
2.52287e-07
1.90959e-05
2.7296e-07
1.92012e-05
2.7887e-07
1.94019e-05
2.58383e-07
1.97381e-05
1.82804e-07
2.01642e-05
2.04606e-05
-1.78763e-07
1.98454e-05
-2.52478e-07
1.94439e-05
-2.73711e-07
1.89655e-05
-2.68611e-07
1.86043e-05
-2.49559e-07
1.83899e-05
-2.24769e-07
1.82802e-05
-1.97827e-07
1.82312e-05
-1.72945e-07
1.82139e-05
-1.46523e-07
1.82098e-05
-1.20295e-07
1.82125e-05
-9.54275e-08
1.82149e-05
-7.27515e-08
1.82147e-05
-4.64122e-08
1.82202e-05
-2.25405e-08
1.82218e-05
1.04385e-09
1.8223e-05
2.32659e-08
1.82203e-05
4.73052e-08
1.82188e-05
7.17239e-08
1.82206e-05
9.34755e-08
1.82151e-05
1.20769e-07
1.82141e-05
1.47541e-07
1.82062e-05
1.76048e-07
1.82052e-05
2.01691e-07
1.82049e-05
2.23743e-07
1.82167e-05
2.49031e-07
1.82736e-05
2.68105e-07
1.8387e-05
2.72355e-07
1.86037e-05
2.5133e-07
1.89657e-05
1.77923e-07
1.94443e-05
1.98452e-05
-1.72343e-07
1.9236e-05
-2.43939e-07
1.87338e-05
-2.65163e-07
1.82047e-05
-2.60664e-07
1.78172e-05
-2.41026e-07
1.7587e-05
-2.16713e-07
1.74706e-05
-1.90876e-07
1.7418e-05
-1.66151e-07
1.74031e-05
-1.39826e-07
1.7398e-05
-1.16571e-07
1.74014e-05
-9.5267e-08
1.74065e-05
-6.84081e-08
1.74095e-05
-4.45661e-08
1.74105e-05
-2.2772e-08
1.74139e-05
-2.5296e-10
1.74122e-05
2.25023e-08
1.74165e-05
4.6791e-08
1.74132e-05
6.92551e-08
1.74114e-05
9.0549e-08
1.74088e-05
1.14767e-07
1.74012e-05
1.40894e-07
1.73977e-05
1.66124e-07
1.73958e-05
1.90681e-07
1.74e-05
2.22391e-07
1.74223e-05
2.43085e-07
1.74669e-05
2.61303e-07
1.75854e-05
2.64317e-07
1.78183e-05
2.43215e-07
1.82048e-05
1.71907e-07
1.87339e-05
1.92354e-05
-1.6373e-07
1.863e-05
-2.33342e-07
1.80336e-05
-2.54311e-07
1.74556e-05
-2.51059e-07
1.70433e-05
-2.29703e-07
1.67956e-05
-2.08075e-07
1.66751e-05
-1.80948e-07
1.66218e-05
-1.59007e-07
1.66041e-05
-1.32413e-07
1.65967e-05
-1.09607e-07
1.66001e-05
-9.49499e-08
1.66022e-05
-6.61375e-08
1.66164e-05
-4.23092e-08
1.66175e-05
-2.40503e-08
1.66171e-05
2.5199e-09
1.66142e-05
1.9863e-08
1.66165e-05
4.37157e-08
1.66168e-05
6.64638e-08
1.66181e-05
8.54943e-08
1.66166e-05
1.13409e-07
1.66133e-05
1.3385e-07
1.6605e-05
1.58963e-07
1.66083e-05
1.88087e-07
1.66102e-05
2.07359e-07
1.6625e-05
2.3196e-07
1.66747e-05
2.51712e-07
1.67963e-05
2.53512e-07
1.70461e-05
2.32889e-07
1.74554e-05
1.63758e-07
1.80333e-05
1.86294e-05
-1.55048e-07
1.80277e-05
-2.20664e-07
1.73418e-05
-2.39189e-07
1.67164e-05
-2.39569e-07
1.62858e-05
-2.16623e-07
1.60188e-05
-1.96499e-07
1.58913e-05
-1.74769e-07
1.58397e-05
-1.5093e-07
1.58201e-05
-1.28272e-07
1.5817e-05
-1.04917e-07
1.58172e-05
-8.17475e-08
1.58212e-05
-6.37157e-08
1.58241e-05
-4.63406e-08
1.58268e-05
-2.27773e-08
1.58343e-05
-9.9098e-10
1.58356e-05
2.23099e-08
1.58349e-05
4.54295e-08
1.58357e-05
6.15044e-08
1.58294e-05
8.81787e-08
1.58317e-05
1.0451e-07
1.58196e-05
1.32769e-07
1.58234e-05
1.50421e-07
1.58161e-05
1.74721e-07
1.58236e-05
1.97257e-07
1.5841e-05
2.17622e-07
1.5893e-05
2.3743e-07
1.60166e-05
2.38324e-07
1.62873e-05
2.20235e-07
1.67159e-05
1.55002e-07
1.73412e-05
1.80272e-05
-1.47083e-07
1.74304e-05
-2.07176e-07
1.66573e-05
-2.21658e-07
1.5986e-05
-2.21322e-07
1.55402e-05
-2.06726e-07
1.52549e-05
-1.8619e-07
1.51268e-05
-1.6784e-07
1.50709e-05
-1.42309e-07
1.50551e-05
-1.24785e-07
1.50513e-05
-1.00669e-07
1.50565e-05
-7.78236e-08
1.50589e-05
-6.01263e-08
1.5059e-05
-4.26031e-08
1.50617e-05
-1.79102e-08
1.50682e-05
-2.37444e-09
1.50675e-05
2.24475e-08
1.50688e-05
3.96309e-08
1.50646e-05
6.26084e-08
1.50659e-05
7.90413e-08
1.50598e-05
1.056e-07
1.50646e-05
1.23161e-07
1.50535e-05
1.4577e-07
1.50549e-05
1.65373e-07
1.5054e-05
1.85777e-07
1.50685e-05
2.04678e-07
1.51282e-05
2.20188e-07
1.52631e-05
2.21267e-07
1.55411e-05
2.06892e-07
1.59855e-05
1.47029e-07
1.66566e-05
1.74299e-05
-1.40014e-07
1.68392e-05
-1.95038e-07
1.59809e-05
-2.05846e-07
1.5265e-05
-1.987e-07
1.48009e-05
-1.93958e-07
1.45203e-05
-1.77491e-07
1.43763e-05
-1.55399e-07
1.43124e-05
-1.37017e-07
1.42955e-05
-1.13893e-07
1.42974e-05
-9.90325e-08
1.43024e-05
-7.64087e-08
1.43088e-05
-5.71237e-08
1.4309e-05
-3.83797e-08
1.43082e-05
-1.86261e-08
1.43125e-05
1.76157e-09
1.43136e-05
1.78155e-08
1.43215e-05
3.92839e-08
1.43148e-05