/*--------------------------------*- C++ -*----------------------------------*\
| =========                 |                                                 |
| \\      /  F ield         | OpenFOAM: The Open Source CFD Toolbox           |
|  \\    /   O peration     | Version:  2312                                  |
|   \\  /    A nd           | Website:  www.openfoam.com                      |
|    \\/     M anipulation  |                                                 |
\*---------------------------------------------------------------------------*/
FoamFile
{
    version     2.0;
    format      ascii;
    arch        "LSB;label=32;scalar=64";
    class       volVectorField;
    location    "0.01";
    object      U;
}
// * * * * * * * * * * * * * * * * * * * * * * * * * * * * * * * * * * * * * //

dimensions      [0 1 -1 0 0 0 0];

internalField   nonuniform List<vector> 
6000
(
(0.0211771 0.229011 0)
(0.0404997 0.249856 0)
(0.0385289 0.254456 0)
(0.0347882 0.254271 0)
(0.0296059 0.253911 0)
(0.0243968 0.253424 0)
(0.0198153 0.252964 0)
(0.0159521 0.252587 0)
(0.0127373 0.252291 0)
(0.0100447 0.252066 0)
(0.00775226 0.251898 0)
(0.0057564 0.251777 0)
(0.00397119 0.251693 0)
(0.00232679 0.25164 0)
(0.000762545 0.251615 0)
(-0.000775726 0.251615 0)
(-0.00233977 0.25164 0)
(-0.00398352 0.251693 0)
(-0.00576704 0.251776 0)
(-0.00775961 0.251896 0)
(-0.0100479 0.252064 0)
(-0.012736 0.252289 0)
(-0.0159469 0.252585 0)
(-0.0198073 0.252963 0)
(-0.0243879 0.253423 0)
(-0.0295978 0.253911 0)
(-0.0347817 0.254271 0)
(-0.0385245 0.254456 0)
(-0.0404968 0.249856 0)
(-0.0211759 0.229012 0)
(0.0169114 0.437116 0)
(0.0255298 0.475018 0)
(0.029893 0.490312 0)
(0.0282187 0.495554 0)
(0.0241841 0.496649 0)
(0.0200243 0.495883 0)
(0.0163292 0.49468 0)
(0.0132048 0.493554 0)
(0.0105936 0.492635 0)
(0.00839154 0.491932 0)
(0.00650278 0.491404 0)
(0.00484511 0.491026 0)
(0.00335054 0.490763 0)
(0.00196657 0.490599 0)
(0.000644893 0.49052 0)
(-0.000657345 0.490521 0)
(-0.00197947 0.490598 0)
(-0.00336363 0.490761 0)
(-0.00485718 0.491021 0)
(-0.00651069 0.491396 0)
(-0.00839456 0.491923 0)
(-0.0105919 0.492626 0)
(-0.0131982 0.493546 0)
(-0.016319 0.494676 0)
(-0.0200137 0.495881 0)
(-0.0241756 0.496649 0)
(-0.0282124 0.495556 0)
(-0.0298888 0.490314 0)
(-0.0255272 0.475019 0)
(-0.0169105 0.437118 0)
(0.00888093 0.411987 0)
(0.0130995 0.449396 0)
(0.0170865 0.469356 0)
(0.0177774 0.477966 0)
(0.0163858 0.480204 0)
(0.0142272 0.479588 0)
(0.0119537 0.478094 0)
(0.00985764 0.476574 0)
(0.00801792 0.475304 0)
(0.00641568 0.474323 0)
(0.00501073 0.473583 0)
(0.00375533 0.473054 0)
(0.00260821 0.472684 0)
(0.00153535 0.472453 0)
(0.000504042 0.472342 0)
(-0.000515021 0.472344 0)
(-0.00154732 0.472451 0)
(-0.0026216 0.472682 0)
(-0.00376914 0.473045 0)
(-0.00501919 0.473569 0)
(-0.00641873 0.474308 0)
(-0.00801649 0.47529 0)
(-0.00985064 0.47656 0)
(-0.0119415 0.478085 0)
(-0.0142149 0.479587 0)
(-0.0163767 0.480205 0)
(-0.0177708 0.477969 0)
(-0.0170825 0.469358 0)
(-0.0130969 0.449397 0)
(-0.00887935 0.41199 0)
(0.00460308 0.398611 0)
(0.00662581 0.438524 0)
(0.00877525 0.460856 0)
(0.0100209 0.471186 0)
(0.0102236 0.474485 0)
(0.00963188 0.474355 0)
(0.00859334 0.472974 0)
(0.00739212 0.471369 0)
(0.00619254 0.469965 0)
(0.00505672 0.468841 0)
(0.00400704 0.467982 0)
(0.00303311 0.467362 0)
(0.00212281 0.466922 0)
(0.001256 0.466652 0)
(0.00041278 0.466519 0)
(-0.000422731 0.466524 0)
(-0.00126613 0.466649 0)
(-0.00213616 0.466925 0)
(-0.00305051 0.467349 0)
(-0.00401784 0.46796 0)
(-0.00506124 0.468821 0)
(-0.00619199 0.469943 0)
(-0.00738477 0.471348 0)
(-0.0085794 0.472959 0)
(-0.0096184 0.474357 0)
(-0.0102128 0.474487 0)
(-0.010012 0.471192 0)
(-0.00877168 0.46086 0)
(-0.00662399 0.438525 0)
(-0.00460092 0.398617 0)
(0.00168198 0.388301 0)
(0.00244526 0.429257 0)
(0.00373735 0.452082 0)
(0.00496418 0.463195 0)
(0.00575269 0.467297 0)
(0.00598841 0.467737 0)
(0.00576738 0.466686 0)
(0.00525433 0.465199 0)
(0.00458755 0.463821 0)
(0.0038565 0.462661 0)
(0.00312097 0.461756 0)
(0.00239768 0.461093 0)
(0.00169704 0.460612 0)
(0.00101271 0.460327 0)
(0.00033504 0.460179 0)
(-0.00034174 0.460188 0)
(-0.00102043 0.460319 0)
(-0.00170864 0.460625 0)
(-0.00241857 0.461079 0)
(-0.00313737 0.461725 0)
(-0.00386548 0.462634 0)
(-0.00458786 0.463788 0)
(-0.00524648 0.465171 0)
(-0.00575483 0.466665 0)
(-0.00597563 0.467741 0)
(-0.00573688 0.467293 0)
(-0.00494984 0.463209 0)
(-0.00373417 0.452091 0)
(-0.00244533 0.429255 0)
(-0.00168066 0.388309 0)
(-6.09762e-05 0.379771 0)
(-0.000220073 0.420306 0)
(0.00052578 0.44275 0)
(0.00159989 0.454 0)
(0.00255508 0.458557 0)
(0.00316777 0.459481 0)
(0.00341613 0.458786 0)
(0.00337009 0.457527 0)
(0.00310951 0.456285 0)
(0.00271663 0.455183 0)
(0.00226054 0.454294 0)
(0.00177 0.453639 0)
(0.00126839 0.453147 0)
(0.000764788 0.452866 0)
(0.000259887 0.452715 0)
(-0.000258797 0.452738 0)
(-0.0007765 0.452854 0)
(-0.00128138 0.453172 0)
(-0.00179037 0.453631 0)
(-0.00228086 0.45426 0)
(-0.00272928 0.455145 0)
(-0.00311005 0.456236 0)
(-0.00336183 0.457491 0)
(-0.00340376 0.458759 0)
(-0.00315245 0.459476 0)
(-0.00253385 0.45854 0)
(-0.00158141 0.454024 0)
(-0.000520571 0.442765 0)
(0.000219374 0.420301 0)
(5.99929e-05 0.379778 0)
(-0.00102825 0.372695 0)
(-0.00193087 0.411991 0)
(-0.00162517 0.433677 0)
(-0.000748345 0.444726 0)
(0.000208198 0.449463 0)
(0.00099516 0.450704 0)
(0.00150863 0.45033 0)
(0.0017665 0.449318 0)
(0.00180026 0.44828 0)
(0.00167128 0.447273 0)
(0.00145596 0.446448 0)
(0.00117157 0.445825 0)
(0.000853384 0.445344 0)
(0.000519119 0.445063 0)
(0.000177927 0.444916 0)
(-0.000180194 0.444972 0)
(-0.000535173 0.445057 0)
(-0.000867447 0.445367 0)
(-0.00118304 0.445814 0)
(-0.00146977 0.446418 0)
(-0.00168834 0.447218 0)
(-0.00180095 0.448213 0)
(-0.00175485 0.449275 0)
(-0.00149244 0.450294 0)
(-0.000977542 0.450695 0)
(-0.000189925 0.449447 0)
(0.00076861 0.444757 0)
(0.0016378 0.433701 0)
(0.00193379 0.411989 0)
(0.00102737 0.3727 0)
(-0.00155014 0.366463 0)
(-0.00303933 0.40419 0)
(-0.00311713 0.424839 0)
(-0.00245261 0.43553 0)
(-0.00156722 0.44026 0)
(-0.000696085 0.44171 0)
(-2.04005e-05 0.441603 0)
(0.000443447 0.44079 0)
(0.000689452 0.439922 0)
(0.000743775 0.439019 0)
(0.000728442 0.438294 0)
(0.000632597 0.437737 0)
(0.000471857 0.437296 0)
(0.000294196 0.437054 0)
(0.000103617 0.436906 0)
(-0.000109288 0.436945 0)
(-0.000308887 0.437007 0)
(-0.000486307 0.437306 0)
(-0.000623356 0.437699 0)
(-0.000730141 0.438279 0)
(-0.000771879 0.438965 0)
(-0.000683516 0.439842 0)
(-0.000423097 0.4407 0)
(3.83425e-05 0.441513 0)
(0.00070507 0.441657 0)
(0.00156493 0.440217 0)
(0.00247055 0.435549 0)
(0.00313638 0.424876 0)
(0.00304794 0.404198 0)
(0.00155198 0.366469 0)
(-0.00184674 0.360718 0)
(-0.00377041 0.3968 0)
(-0.00419355 0.416234 0)
(-0.00371043 0.426412 0)
(-0.00290796 0.430952 0)
(-0.00200694 0.432566 0)
(-0.00123671 0.432553 0)
(-0.000678737 0.431954 0)
(-0.000263567 0.431147 0)
(-4.04947e-05 0.430382 0)
(9.9577e-05 0.429765 0)
(0.000163063 0.429298 0)
(0.000131761 0.428971 0)
(0.000112747 0.428845 0)
(4.2658e-05 0.428629 0)
(-6.71546e-05 0.428701 0)
(-0.000113345 0.428734 0)
(-0.000139727 0.429004 0)
(-0.000129117 0.429276 0)
(-8.65431e-05 0.429829 0)
(1.80712e-05 0.430386 0)
(0.000239879 0.431152 0)
(0.000657563 0.43189 0)
(0.00127675 0.432486 0)
(0.00202752 0.432383 0)
(0.00290009 0.430913 0)
(0.00373727 0.426371 0)
(0.00420349 0.416268 0)
(0.0037801 0.396818 0)
(0.00185028 0.360729 0)
(-0.00202781 0.355259 0)
(-0.00424702 0.38971 0)
(-0.004926 0.407821 0)
(-0.00461793 0.417274 0)
(-0.00386342 0.421546 0)
(-0.00299607 0.423192 0)
(-0.00222695 0.423217 0)
(-0.00161046 0.422812 0)
(-0.00111285 0.42215 0)
(-0.000698238 0.42159 0)
(-0.000401393 0.42114 0)
(-0.000208022 0.42078 0)
(-7.2411e-05 0.420476 0)
(-2.84782e-05 0.420369 0)
(-2.38149e-05 0.42012 0)
(-1.29518e-05 0.420267 0)
(4.95613e-05 0.420356 0)
(0.000145551 0.420548 0)
(0.000286331 0.420762 0)
(0.000447251 0.421129 0)
(0.000662177 0.4216 0)
(0.00102915 0.422291 0)
(0.00153147 0.422958 0)
(0.00218887 0.423406 0)
(0.00301582 0.423181 0)
(0.00389707 0.421606 0)
(0.00464006 0.417265 0)
(0.00494994 0.40786 0)
(0.00425712 0.389737 0)
(0.0020313 0.355276 0)
(-0.00212496 0.349962 0)
(-0.00452166 0.382809 0)
(-0.00541779 0.39958 0)
(-0.00525087 0.408109 0)
(-0.00452089 0.412117 0)
(-0.00376966 0.413573 0)
(-0.00299721 0.413849 0)
(-0.00228669 0.41354 0)
(-0.00172311 0.413158 0)
(-0.00116202 0.41276 0)
(-0.000793686 0.412482 0)
(-0.000532029 0.412177 0)
(-0.00026849 0.411824 0)
(-0.00017374 0.411522 0)
(-7.39242e-05 0.411443 0)
(0.000101901 0.411539 0)
(0.00021629 0.411691 0)
(0.000353275 0.411831 0)
(0.000549861 0.412101 0)
(0.000843712 0.41234 0)
(0.00122528 0.412727 0)
(0.00172551 0.413288 0)
(0.00227094 0.41376 0)
(0.00287353 0.414077 0)
(0.00367581 0.41388 0)
(0.00454593 0.412289 0)
(0.00523748 0.408219 0)
(0.00541794 0.399632 0)
(0.00452075 0.38284 0)
(0.00212447 0.349983 0)
(-0.00216714 0.344711 0)
(-0.00460563 0.37595 0)
(-0.00567575 0.39151 0)
(-0.00565649 0.399054 0)
(-0.0050234 0.402764 0)
(-0.00427673 0.404082 0)
(-0.00351298 0.404591 0)
(-0.0027323 0.404373 0)
(-0.00206425 0.404193 0)
(-0.00152379 0.403913 0)
(-0.00111563 0.403586 0)
(-0.000823908 0.403302 0)
(-0.000562365 0.402952 0)
(-0.000346918 0.402609 0)
(-5.66108e-05 0.402688 0)
(0.000227489 0.402524 0)
(0.000373953 0.402626 0)
(0.00055115 0.40279 0)
(0.00079161 0.403129 0)
(0.00116696 0.403493 0)
(0.00166703 0.403734 0)
(0.00221882 0.404102 0)
(0.00279509 0.404295 0)
(0.00340821 0.404465 0)
(0.00414005 0.404296 0)
(0.00492549 0.402856 0)
(0.00556871 0.399169 0)
(0.00562736 0.39154 0)
(0.00458791 0.375976 0)
(0.00216056 0.344727 0)
(-0.00217665 0.339454 0)
(-0.0045594 0.368993 0)
(-0.00569909 0.38359 0)
(-0.00581499 0.390126 0)
(-0.00534905 0.393449 0)
(-0.0045785 0.394832 0)
(-0.00378622 0.395268 0)
(-0.00302701 0.395263 0)
(-0.00230429 0.39503 0)
(-0.00181216 0.394717 0)
(-0.00139356 0.394374 0)
(-0.00107135 0.394057 0)
(-0.000846081 0.393905 0)
(-0.0004614 0.39374 0)
(-0.000119864 0.393791 0)
(0.000156637 0.39363 0)
(0.000482304 0.393587 0)
(0.000787607 0.393788 0)
(0.00110444 0.393995 0)
(0.00147446 0.394398 0)
(0.00194465 0.394652 0)
(0.00244891 0.394841 0)
(0.00306475 0.394979 0)
(0.0038227 0.395012 0)
(0.00455184 0.394623 0)
(0.00520665 0.39339 0)
(0.00572041 0.39013 0)
(0.00562215 0.38357 0)
(0.00452697 0.369004 0)
(0.00216584 0.339456 0)
(-0.00216122 0.334136 0)
(-0.00447657 0.361905 0)
(-0.00552739 0.375619 0)
(-0.00575643 0.381341 0)
(-0.00539352 0.384107 0)
(-0.00469622 0.385507 0)
(-0.00393018 0.385835 0)
(-0.00321303 0.385803 0)
(-0.00261874 0.385572 0)
(-0.00209589 0.385387 0)
(-0.00165801 0.385077 0)
(-0.00125858 0.384874 0)
(-0.000874861 0.384773 0)
(-0.000485197 0.384868 0)
(-0.000181481 0.38469 0)
(9.82383e-05 0.384749 0)
(0.000514534 0.384724 0)
(0.000947622 0.384851 0)
(0.00135183 0.384938 0)
(0.00173384 0.385156 0)
(0.00214827 0.385413 0)
(0.00262267 0.385636 0)
(0.00323738 0.385761 0)
(0.00398677 0.385743 0)
(0.00471338 0.385283 0)
(0.00533882 0.384029 0)
(0.00567392 0.381343 0)
(0.00546481 0.375571 0)
(0.00444068 0.36189 0)
(0.00215046 0.33412 0)
(-0.00214377 0.328739 0)
(-0.00440664 0.354707 0)
(-0.00530357 0.367376 0)
(-0.00551884 0.372816 0)
(-0.0052329 0.374937 0)
(-0.00464136 0.376034 0)
(-0.00404487 0.376299 0)
(-0.00340407 0.376318 0)
(-0.00279416 0.376154 0)
(-0.00227862 0.376014 0)
(-0.00183387 0.375972 0)
(-0.00135033 0.375803 0)
(-0.000846161 0.375839 0)
(-0.000502201 0.375704 0)
(-0.000256505 0.375701 0)
(0.000107262 0.375681 0)
(0.00056698 0.375783 0)
(0.00101936 0.375833 0)
(0.00146355 0.376011 0)
(0.00189029 0.375995 0)
(0.00229969 0.37624 0)
(0.00277818 0.376393 0)
(0.00336838 0.376462 0)
(0.00405445 0.376452 0)
(0.00471596 0.376187 0)
(0.00518905 0.374881 0)
(0.00540332 0.372731 0)
(0.00526288 0.367313 0)
(0.00438226 0.354668 0)
(0.0021357 0.328706 0)
(-0.00214239 0.32328 0)
(-0.0043574 0.34741 0)
(-0.00517872 0.358922 0)
(-0.00519815 0.364023 0)
(-0.00491868 0.365891 0)
(-0.00450473 0.366652 0)
(-0.00398405 0.366911 0)
(-0.00346537 0.366763 0)
(-0.00290218 0.366892 0)
(-0.0023639 0.366759 0)
(-0.00189766 0.366798 0)
(-0.00134723 0.36661 0)
(-0.000919873 0.366713 0)
(-0.000592811 0.366668 0)
(-0.000210962 0.366648 0)
(0.000198105 0.366406 0)
(0.000587054 0.366503 0)
(0.000962822 0.36653 0)
(0.00139028 0.366945 0)
(0.00183885 0.366877 0)
(0.00237424 0.367111 0)
(0.00291485 0.367125 0)
(0.00344718 0.367049 0)
(0.00405308 0.367094 0)
(0.00451469 0.367106 0)
(0.0048921 0.365994 0)
(0.00521696 0.363899 0)
(0.00518441 0.35885 0)
(0.0043548 0.347362 0)
(0.0021378 0.323236 0)
(-0.00211098 0.317794 0)
(-0.00430321 0.340055 0)
(-0.00516191 0.350438 0)
(-0.00519177 0.354905 0)
(-0.00485766 0.356586 0)
(-0.0044297 0.357493 0)
(-0.00395777 0.357844 0)
(-0.00346606 0.357747 0)
(-0.00298776 0.357868 0)
(-0.0024477 0.357774 0)
(-0.0018774 0.357788 0)
(-0.00141945 0.35764 0)
(-0.00100999 0.357687 0)
(-0.000615254 0.357732 0)
(-0.000211989 0.35765 0)
(0.000158191 0.357452 0)
(0.000496218 0.357468 0)
(0.000900894 0.357478 0)
(0.00130633 0.357635 0)
(0.00182831 0.357597 0)
(0.00239064 0.357721 0)
(0.0029504 0.357629 0)
(0.00354302 0.357638 0)
(0.00400437 0.357699 0)
(0.00448862 0.357418 0)
(0.00500269 0.356627 0)
(0.00530627 0.354837 0)
(0.00521429 0.350389 0)
(0.00432435 0.340017 0)
(0.00211537 0.317749 0)
(-0.00203142 0.312161 0)
(-0.00421201 0.332672 0)
(-0.00513379 0.342028 0)
(-0.00528505 0.34589 0)
(-0.00504862 0.347269 0)
(-0.00461831 0.347901 0)
(-0.00409254 0.348104 0)
(-0.00353469 0.348025 0)
(-0.00302602 0.348057 0)
(-0.0024896 0.348054 0)
(-0.00193197 0.348024 0)
(-0.00146888 0.34792 0)
(-0.00102722 0.347944 0)
(-0.000622868 0.347938 0)
(-0.00023727 0.347897 0)
(0.000145878 0.34779 0)
(0.000535554 0.347819 0)
(0.000983359 0.347874 0)
(0.00139943 0.347973 0)
(0.00190358 0.348041 0)
(0.00244845 0.348073 0)
(0.00298117 0.348053 0)
(0.00357959 0.348055 0)
(0.00411926 0.348099 0)
(0.00465892 0.347931 0)
(0.0051379 0.347347 0)
(0.00536889 0.345892 0)
(0.00518822 0.342017 0)
(0.00424121 0.332656 0)
(0.00204251 0.312137 0)
(-0.00196225 0.306432 0)
(-0.00411209 0.325305 0)
(-0.00506455 0.333677 0)
(-0.00527493 0.336981 0)
(-0.00508861 0.338089 0)
(-0.00469062 0.338533 0)
(-0.00414923 0.33866 0)
(-0.00357157 0.338622 0)
(-0.00302766 0.338634 0)
(-0.00249341 0.338648 0)
(-0.00198272 0.338632 0)
(-0.00151426 0.338586 0)
(-0.00107207 0.338579 0)
(-0.000636563 0.33855 0)
(-0.000217664 0.338541 0)
(0.000180956 0.338504 0)
(0.000593366 0.338517 0)
(0.0010267 0.338565 0)
(0.00147301 0.338611 0)
(0.00194798 0.33868 0)
(0.00246326 0.338659 0)
(0.00300639 0.338656 0)
(0.00356186 0.338637 0)
(0.0041543 0.338653 0)
(0.00471797 0.338535 0)
(0.00514718 0.338139 0)
(0.00533482 0.337005 0)
(0.00510657 0.33369 0)
(0.00413619 0.325305 0)
(0.0019707 0.306425 0)
(-0.00189911 0.300611 0)
(-0.00399487 0.31793 0)
(-0.00494713 0.325351 0)
(-0.00519197 0.328104 0)
(-0.00503962 0.32891 0)
(-0.00464926 0.329164 0)
(-0.00412568 0.329173 0)
(-0.00356774 0.329199 0)
(-0.00301343 0.329174 0)
(-0.00249013 0.329248 0)
(-0.00200686 0.329212 0)
(-0.00153825 0.329246 0)
(-0.00109228 0.329211 0)
(-0.000640566 0.329174 0)
(-0.000197944 0.329188 0)
(0.000229796 0.329206 0)
(0.000652322 0.32921 0)
(0.00106483 0.329259 0)
(0.00152623 0.329245 0)
(0.00197065 0.329311 0)
(0.00244185 0.329216 0)
(0.00298695 0.329258 0)
(0.00352272 0.329183 0)
(0.00410538 0.329144 0)
(0.00466447 0.329132 0)
(0.00507974 0.328934 0)
(0.00523236 0.328146 0)
(0.00497108 0.325377 0)
(0.00400887 0.317944 0)
(0.00190374 0.300617 0)
(-0.00183561 0.294695 0)
(-0.00385415 0.310525 0)
(-0.00476274 0.317021 0)
(-0.00501908 0.319283 0)
(-0.0049096 0.319721 0)
(-0.00453881 0.31975 0)
(-0.00401396 0.319681 0)
(-0.00348601 0.319746 0)
(-0.00294491 0.319763 0)
(-0.00244467 0.319817 0)
(-0.00199849 0.319832 0)
(-0.00153609 0.319912 0)
(-0.00110377 0.319919 0)
(-0.000627154 0.319911 0)
(-0.000157165 0.319928 0)
(0.000268872 0.31997 0)
(0.000689762 0.319961 0)
(0.00109274 0.319941 0)
(0.0015425 0.319869 0)
(0.00194594 0.319825 0)
(0.00239648 0.319763 0)
(0.00292958 0.319806 0)
(0.00340657 0.319721 0)
(0.00397731 0.319685 0)
(0.0045464 0.319693 0)
(0.00493238 0.319737 0)
(0.00502881 0.319343 0)
(0.00476232 0.317055 0)
(0.00385428 0.310544 0)
(0.00183608 0.294707 0)
(-0.00177571 0.28869 0)
(-0.00370074 0.303061 0)
(-0.00452826 0.308642 0)
(-0.00472479 0.310504 0)
(-0.00466112 0.310633 0)
(-0.00435254 0.310363 0)
(-0.00386257 0.310247 0)
(-0.00334055 0.310328 0)
(-0.00285428 0.310365 0)
(-0.00240044 0.310426 0)
(-0.00194933 0.310491 0)
(-0.00149888 0.310571 0)
(-0.00104359 0.310617 0)
(-0.000609383 0.310643 0)
(-0.000158971 0.310668 0)
(0.000314242 0.310702 0)
(0.000705114 0.310656 0)
(0.00107365 0.310585 0)
(0.00148201 0.310511 0)
(0.001904 0.310393 0)
(0.00235014 0.310374 0)
(0.00281718 0.310321 0)
(0.0033247 0.310332 0)
(0.00382651 0.310263 0)
(0.00434082 0.310332 0)
(0.00466508 0.310701 0)
(0.00469306 0.310575 0)
(0.00449827 0.308669 0)
(0.00368736 0.303074 0)
(0.00177228 0.288699 0)
(-0.00172216 0.28261 0)
(-0.00355755 0.295511 0)
(-0.00430632 0.300184 0)
(-0.00437898 0.301622 0)
(-0.0042866 0.30176 0)
(-0.00410228 0.301139 0)
(-0.00367531 0.300909 0)
(-0.0031941 0.300972 0)
(-0.00275559 0.301 0)
(-0.00229869 0.301082 0)
(-0.00185123 0.301148 0)
(-0.00143869 0.301251 0)
(-0.00102196 0.301311 0)
(-0.000567697 0.301351 0)
(-0.000107969 0.301373 0)
(0.000304638 0.301381 0)
(0.00066208 0.301374 0)
(0.00103154 0.301261 0)
(0.0014044 0.301163 0)
(0.0018394 0.301095 0)
(0.00227932 0.301012 0)
(0.00271758 0.300931 0)
(0.00319267 0.300957 0)
(0.0036672 0.300915 0)
(0.004086 0.301129 0)
(0.00425248 0.301842 0)
(0.00431307 0.301705 0)
(0.00425726 0.300189 0)
(0.00353704 0.29551 0)
(0.00171674 0.282609 0)
(-0.00167401 0.276472 0)
(-0.00344062 0.287903 0)
(-0.00414653 0.291684 0)
(-0.00415375 0.292605 0)
(-0.0038734 0.292736 0)
(-0.00367632 0.292318 0)
(-0.00339455 0.291641 0)
(-0.00303834 0.291826 0)
(-0.00267389 0.291692 0)
(-0.00219633 0.291796 0)
(-0.00176185 0.29185 0)
(-0.00136526 0.29198 0)
(-0.000965147 0.291979 0)
(-0.000532471 0.29204 0)
(-7.1947e-05 0.292063 0)
(0.000344024 0.292157 0)
(0.000617713 0.292205 0)
(0.000903336 0.292035 0)
(0.00135185 0.291917 0)
(0.00177704 0.291877 0)
(0.00215015 0.291798 0)
(0.00264155 0.291625 0)
(0.00306054 0.291809 0)
(0.00338754 0.291684 0)
(0.00363608 0.292247 0)
(0.0038155 0.292911 0)
(0.00407024 0.292667 0)
(0.00410161 0.291659 0)
(0.00342283 0.287884 0)
(0.00166945 0.276459 0)
(-0.0016345 0.2703 0)
(-0.00335152 0.280272 0)
(-0.00404223 0.283198 0)
(-0.00407363 0.283594 0)
(-0.0037402 0.283402 0)
(-0.00331186 0.283219 0)
(-0.00302217 0.282664 0)
(-0.00283447 0.283007 0)
(-0.00250265 0.28248 0)
(-0.00211024 0.282697 0)
(-0.00171466 0.282621 0)
(-0.00132123 0.28294 0)
(-0.000950086 0.2828 0)
(-0.000535098 0.282927 0)
(-0.000140689 0.282893 0)
(0.000216331 0.283253 0)
(0.000567421 0.28332 0)
(0.000936845 0.283143 0)
(0.00133231 0.28284 0)
(0.00174064 0.282872 0)
(0.00212028 0.282731 0)
(0.00251772 0.282523 0)
(0.00283318 0.282993 0)
(0.00302359 0.28289 0)
(0.00327713 0.283213 0)
(0.00367531 0.283598 0)
(0.00402694 0.283603 0)
(0.00402361 0.283151 0)
(0.00334514 0.280241 0)
(0.00163319 0.270278 0)
(-0.00160738 0.264117 0)
(-0.00328033 0.272642 0)
(-0.00395792 0.274761 0)
(-0.00402908 0.274689 0)
(-0.0037834 0.274189 0)
(-0.00337729 0.273834 0)
(-0.00300575 0.273424 0)
(-0.00265051 0.273461 0)
(-0.00232307 0.273332 0)
(-0.0020282 0.273434 0)
(-0.00168486 0.273453 0)
(-0.00130785 0.273551 0)
(-0.0009182 0.273552 0)
(-0.00058611 0.273621 0)
(-0.000260789 0.273563 0)
(0.000106528 0.273679 0)
(0.000534097 0.273714 0)
(0.000959592 0.273621 0)
(0.00131687 0.273472 0)
(0.00168265 0.273451 0)
(0.00205945 0.273371 0)
(0.00236149 0.273292 0)
(0.00267647 0.273424 0)
(0.00301946 0.273491 0)
(0.00337152 0.273865 0)
(0.00375999 0.274327 0)
(0.00402591 0.274672 0)
(0.00396463 0.274712 0)
(0.00328581 0.272608 0)
(0.00160952 0.264095 0)
(-0.00157332 0.257947 0)
(-0.00320021 0.265033 0)
(-0.00386515 0.266379 0)
(-0.00395932 0.26588 0)
(-0.00375938 0.26514 0)
(-0.00341271 0.264679 0)
(-0.00303082 0.26436 0)
(-0.00264337 0.264261 0)
(-0.00229452 0.264192 0)
(-0.00197178 0.264258 0)
(-0.00161999 0.264286 0)
(-0.0012604 0.264346 0)
(-0.00089813 0.264376 0)
(-0.0005672 0.264421 0)
(-0.000235404 0.264421 0)
(0.000134414 0.26447 0)
(0.00053312 0.264481 0)
(0.000918591 0.264439 0)
(0.00126317 0.264367 0)
(0.00160829 0.264335 0)
(0.0019555 0.264285 0)
(0.00229342 0.264237 0)
(0.00264954 0.264276 0)
(0.00301991 0.264386 0)
(0.00340194 0.264722 0)
(0.00376 0.265244 0)
(0.00397512 0.26585 0)
(0.00388783 0.266336 0)
(0.0032136 0.265005 0)
(0.00157733 0.257929 0)
(-0.00151075 0.251733 0)
(-0.00308562 0.257457 0)
(-0.00375124 0.258055 0)
(-0.00386516 0.257146 0)
(-0.00369385 0.256187 0)
(-0.003367 0.255615 0)
(-0.0029941 0.255318 0)
(-0.00260903 0.255182 0)
(-0.00223791 0.255194 0)
(-0.00190735 0.255247 0)
(-0.00157325 0.255287 0)
(-0.0012245 0.255334 0)
(-0.00088005 0.255365 0)
(-0.000550086 0.255393 0)
(-0.000232133 0.25541 0)
(0.000114569 0.255415 0)
(0.000521344 0.2554 0)
(0.000920225 0.255391 0)
(0.0012543 0.255357 0)
(0.00156295 0.255316 0)
(0.00188071 0.25528 0)
(0.0022102 0.255241 0)
(0.00257733 0.255198 0)
(0.00296235 0.255295 0)
(0.00335327 0.25563 0)
(0.00369867 0.256244 0)
(0.00389432 0.257099 0)
(0.00378559 0.258025 0)
(0.00310413 0.257439 0)
(0.00151587 0.251722 0)
(-0.0014384 0.245469 0)
(-0.00294757 0.24993 0)
(-0.00360543 0.249808 0)
(-0.00374119 0.248489 0)
(-0.00359344 0.247318 0)
(-0.00326952 0.246638 0)
(-0.00290305 0.246337 0)
(-0.00253225 0.246192 0)
(-0.00216924 0.246229 0)
(-0.00184684 0.246278 0)
(-0.00152014 0.246342 0)
(-0.00118757 0.246379 0)
(-0.000854386 0.24641 0)
(-0.000530214 0.246402 0)
(-0.000214696 0.246468 0)
(0.000137761 0.246488 0)
(0.000514609 0.24646 0)
(0.000875151 0.246455 0)
(0.00120561 0.246395 0)
(0.00151399 0.246319 0)
(0.0018257 0.246292 0)
(0.00213221 0.246232 0)
(0.0024822 0.246198 0)
(0.00287172 0.246312 0)
(0.00324129 0.246611 0)
(0.00357952 0.247292 0)
(0.00377732 0.248418 0)
(0.0036483 0.249796 0)
(0.00296905 0.249927 0)
(0.00144493 0.24547 0)
(-0.00137289 0.239172 0)
(-0.00280002 0.242434 0)
(-0.00341012 0.24162 0)
(-0.00355286 0.239955 0)
(-0.00342358 0.238513 0)
(-0.00310286 0.237756 0)
(-0.00276585 0.237421 0)
(-0.00244271 0.237293 0)
(-0.00210521 0.23735 0)
(-0.00177931 0.237375 0)
(-0.00147264 0.237451 0)
(-0.00115496 0.237499 0)
(-0.000836491 0.237528 0)
(-0.000497107 0.237529 0)
(-0.000156853 0.237572 0)
(0.000160774 0.237579 0)
(0.000475796 0.237549 0)
(0.00079853 0.237566 0)
(0.00112943 0.237504 0)
(0.0014613 0.237433 0)
(0.00176696 0.237362 0)
(0.00206524 0.237292 0)
(0.00239983 0.237291 0)
(0.00273653 0.237414 0)
(0.00307902 0.237733 0)
(0.003419 0.2384 0)
(0.0035981 0.239853 0)
(0.00345906 0.241629 0)
(0.00282126 0.242445 0)
(0.00137928 0.239186 0)
(-0.00131526 0.232853 0)
(-0.00265598 0.234936 0)
(-0.00319013 0.233449 0)
(-0.00328265 0.231518 0)
(-0.00318193 0.229833 0)
(-0.00292175 0.228899 0)
(-0.00261569 0.22859 0)
(-0.00231999 0.228508 0)
(-0.00202826 0.228528 0)
(-0.00173194 0.22856 0)
(-0.00141954 0.228624 0)
(-0.00111317 0.228681 0)
(-0.000797272 0.22873 0)
(-0.000479353 0.228739 0)
(-0.000161993 0.228765 0)
(0.000164563 0.228734 0)
(0.000485381 0.228734 0)
(0.000750763 0.228686 0)
(0.00105429 0.228684 0)
(0.00140096 0.228626 0)
(0.00169741 0.228574 0)
(0.00198803 0.228494 0)
(0.00228911 0.228505 0)
(0.00259416 0.228619 0)
(0.00287779 0.228946 0)
(0.00320954 0.229663 0)
(0.00338052 0.231424 0)
(0.00323638 0.23348 0)
(0.0026723 0.23496 0)
(0.00131974 0.232878 0)
(-0.00126374 0.226528 0)
(-0.00253141 0.227442 0)
(-0.0030048 0.225288 0)
(-0.00300474 0.223069 0)
(-0.00289042 0.221382 0)
(-0.00267857 0.22018 0)
(-0.00246822 0.219959 0)
(-0.0022035 0.219736 0)
(-0.00190926 0.219908 0)
(-0.00167575 0.219875 0)
(-0.00136856 0.219909 0)
(-0.00106034 0.219975 0)
(-0.000765624 0.220045 0)
(-0.000448595 0.220067 0)
(-0.000175967 0.22009 0)
(9.37726e-05 0.220014 0)
(0.000447914 0.219958 0)
(0.000751461 0.219965 0)
(0.00103578 0.220001 0)
(0.0013742 0.21997 0)
(0.00163667 0.219986 0)
(0.00185972 0.219893 0)
(0.00218584 0.219792 0)
(0.0024241 0.219963 0)
(0.00269982 0.220254 0)
(0.00298449 0.221139 0)
(0.00307391 0.22307 0)
(0.00301753 0.225339 0)
(0.00253407 0.227477 0)
(0.00126435 0.226559 0)
(-0.00121859 0.220214 0)
(-0.0024327 0.21998 0)
(-0.00288225 0.217176 0)
(-0.00284493 0.214599 0)
(-0.00268251 0.21297 0)
(-0.00250562 0.211731 0)
(-0.00230192 0.211664 0)
(-0.00206605 0.211186 0)
(-0.00180644 0.211537 0)
(-0.00154989 0.211333 0)
(-0.00126768 0.211339 0)
(-0.000969376 0.2114 0)
(-0.000686166 0.211467 0)
(-0.000432 0.211435 0)
(-0.000158723 0.211605 0)
(0.000124817 0.211328 0)
(0.000384257 0.211348 0)
(0.000690058 0.21146 0)
(0.00100875 0.211418 0)
(0.00127992 0.211381 0)
(0.00154751 0.211558 0)
(0.00178948 0.211396 0)
(0.00202881 0.211286 0)
(0.0023141 0.211566 0)
(0.00257128 0.211754 0)
(0.0026978 0.212809 0)
(0.00281975 0.214641 0)
(0.00286029 0.217222 0)
(0.0024218 0.220013 0)
(0.00121561 0.220243 0)
(-0.00118008 0.213931 0)
(-0.00235768 0.212579 0)
(-0.00281059 0.209161 0)
(-0.0028183 0.206238 0)
(-0.00263148 0.204499 0)
(-0.00244697 0.203458 0)
(-0.00223658 0.203102 0)
(-0.00197992 0.202809 0)
(-0.00170585 0.202916 0)
(-0.00141026 0.202863 0)
(-0.00114031 0.202927 0)
(-0.000892194 0.202974 0)
(-0.000643919 0.203028 0)
(-0.000376374 0.203019 0)
(-0.000107175 0.203157 0)
(0.000151608 0.203012 0)
(0.000378716 0.20302 0)
(0.000613102 0.203096 0)
(0.000881651 0.202954 0)
(0.00115713 0.202951 0)
(0.00145639 0.202947 0)
(0.00176283 0.202874 0)
(0.00200026 0.202889 0)
(0.00224376 0.203098 0)
(0.00244662 0.203474 0)
(0.00258873 0.204458 0)
(0.00275682 0.206248 0)
(0.00277656 0.209184 0)
(0.00234082 0.212601 0)
(0.00117541 0.213952 0)
(-0.00114542 0.207696 0)
(-0.00229109 0.205258 0)
(-0.00274232 0.201269 0)
(-0.00278481 0.198055 0)
(-0.00263543 0.19614 0)
(-0.00241619 0.195098 0)
(-0.00218602 0.194658 0)
(-0.001919 0.194447 0)
(-0.00164527 0.194449 0)
(-0.00138329 0.194428 0)
(-0.00110284 0.19447 0)
(-0.000861641 0.194468 0)
(-0.000625802 0.19452 0)
(-0.00035631 0.194522 0)
(-0.000110297 0.194578 0)
(0.000131241 0.194506 0)
(0.000373058 0.194494 0)
(0.000612172 0.194522 0)
(0.000858339 0.194437 0)
(0.00112223 0.194458 0)
(0.00140065 0.194423 0)
(0.00168463 0.194388 0)
(0.00194888 0.194406 0)
(0.00217757 0.194576 0)
(0.00240088 0.195046 0)
(0.00261566 0.196087 0)
(0.00275933 0.198037 0)
(0.00272099 0.201275 0)
(0.00227728 0.205268 0)
(0.00114108 0.207707 0)
(-0.00111355 0.201519 0)
(-0.00222467 0.198021 0)
(-0.00266235 0.193492 0)
(-0.00271263 0.19001 0)
(-0.00258249 0.18794 0)
(-0.00236605 0.186867 0)
(-0.00211225 0.18639 0)
(-0.00185288 0.186204 0)
(-0.00159629 0.186175 0)
(-0.00133493 0.186183 0)
(-0.00107808 0.186217 0)
(-0.000841276 0.186213 0)
(-0.000595364 0.186261 0)
(-0.000342966 0.186277 0)
(-0.000107968 0.186305 0)
(0.000120755 0.186266 0)
(0.000353475 0.186253 0)
(0.000594157 0.186268 0)
(0.000824944 0.186199 0)
(0.00107269 0.186192 0)
(0.00134107 0.186135 0)
(0.00161636 0.186116 0)
(0.00188835 0.186128 0)
(0.0021261 0.186267 0)
(0.00235925 0.186809 0)
(0.00257701 0.187905 0)
(0.00270331 0.189998 0)
(0.00264984 0.193494 0)
(0.00221404 0.198026 0)
(0.00110908 0.201521 0)
(-0.00107802 0.195406 0)
(-0.0021472 0.190871 0)
(-0.00257353 0.185825 0)
(-0.00263169 0.182079 0)
(-0.00250356 0.179855 0)
(-0.0022844 0.178718 0)
(-0.00203496 0.178206 0)
(-0.00178367 0.178054 0)
(-0.00152886 0.178 0)
(-0.00128214 0.178034 0)
(-0.00105932 0.17807 0)
(-0.000817385 0.178078 0)
(-0.000564448 0.178118 0)
(-0.000336049 0.17814 0)
(-0.000115268 0.178134 0)
(0.000110176 0.178143 0)
(0.00034745 0.178116 0)
(0.000579893 0.178118 0)
(0.000797939 0.178079 0)
(0.00102636 0.178041 0)
(0.0012779 0.177977 0)
(0.00153437 0.177967 0)
(0.00178195 0.177984 0)
(0.00206311 0.178156 0)
(0.00232392 0.178665 0)
(0.00251725 0.179832 0)
(0.00263039 0.18208 0)
(0.00256525 0.185827 0)
(0.00214059 0.190874 0)
(0.00107443 0.1954 0)
(-0.00102858 0.189324 0)
(-0.00204594 0.183819 0)
(-0.00246429 0.178275 0)
(-0.0025332 0.174268 0)
(-0.00240169 0.171877 0)
(-0.00218449 0.17069 0)
(-0.00194025 0.170161 0)
(-0.00169765 0.169988 0)
(-0.0014564 0.169935 0)
(-0.0012095 0.16996 0)
(-0.00102326 0.169998 0)
(-0.000804118 0.170094 0)
(-0.00054145 0.170095 0)
(-0.000332255 0.170111 0)
(-0.00010784 0.170093 0)
(0.000112071 0.170124 0)
(0.000317732 0.170114 0)
(0.000550804 0.17011 0)
(0.000760094 0.17009 0)
(0.000992745 0.170031 0)
(0.00123578 0.169974 0)
(0.00146413 0.169977 0)
(0.00173116 0.170013 0)
(0.00197375 0.170195 0)
(0.00219299 0.170667 0)
(0.00241781 0.171871 0)
(0.00253152 0.174287 0)
(0.00245641 0.178275 0)
(0.00204367 0.183819 0)
(0.00102812 0.18932 0)
(-0.000975854 0.183282 0)
(-0.00193287 0.176864 0)
(-0.00232257 0.170839 0)
(-0.00240283 0.166611 0)
(-0.00228483 0.164039 0)
(-0.00205847 0.162798 0)
(-0.00185027 0.162267 0)
(-0.00162632 0.162096 0)
(-0.00139548 0.162026 0)
(-0.00116467 0.162061 0)
(-0.000933002 0.162086 0)
(-0.000726888 0.162163 0)
(-0.000549989 0.162189 0)
(-0.000346382 0.162227 0)
(-0.000117999 0.162208 0)
(0.000106504 0.162232 0)
(0.000338541 0.162227 0)
(0.000535139 0.1622 0)
(0.000747972 0.162212 0)
(0.000961095 0.162128 0)
(0.0011864 0.162107 0)
(0.001416 0.162093 0)
(0.00162249 0.162131 0)
(0.00185411 0.1623 0)
(0.0020671 0.162795 0)
(0.00228194 0.164024 0)
(0.00238721 0.166634 0)
(0.00231338 0.170836 0)
(0.00193072 0.17686 0)
(0.000975834 0.183277 0)
(-0.000927106 0.177286 0)
(-0.00182051 0.169986 0)
(-0.00215973 0.163499 0)
(-0.0022269 0.159116 0)
(-0.00214969 0.156327 0)
(-0.00195473 0.155049 0)
(-0.00176574 0.154532 0)
(-0.00154827 0.154334 0)
(-0.00133404 0.154321 0)
(-0.00112598 0.154329 0)
(-0.000890804 0.154366 0)
(-0.000690934 0.154389 0)
(-0.000514502 0.154408 0)
(-0.000301476 0.154482 0)
(-0.000100937 0.154494 0)
(0.00010101 0.154477 0)
(0.000309708 0.154475 0)
(0.000511342 0.154449 0)
(0.000707344 0.154424 0)
(0.000921797 0.154388 0)