/*--------------------------------*- C++ -*----------------------------------*\
| =========                 |                                                 |
| \\      /  F ield         | OpenFOAM: The Open Source CFD Toolbox           |
|  \\    /   O peration     | Version:  2312                                  |
|   \\  /    A nd           | Website:  www.openfoam.com                      |
|    \\/     M anipulation  |                                                 |
\*---------------------------------------------------------------------------*/
FoamFile
{
    version     2.0;
    format      ascii;
    arch        "LSB;label=32;scalar=64";
    class       volVectorField;
    location    "0.01";
    object      U.air;
}
// * * * * * * * * * * * * * * * * * * * * * * * * * * * * * * * * * * * * * //

dimensions      [0 1 -1 0 0 0 0];

internalField   nonuniform List<vector> 
6000
(
(0.0315294 0.464492 0)
(0.0685898 0.480612 0)
(0.0692945 0.481306 0)
(0.0642018 0.478916 0)
(0.0553504 0.477408 0)
(0.045958 0.476174 0)
(0.0374807 0.475162 0)
(0.0302482 0.474366 0)
(0.0241906 0.473751 0)
(0.0190971 0.473287 0)
(0.0147498 0.472941 0)
(0.0109582 0.472691 0)
(0.00756271 0.472518 0)
(0.00443223 0.472409 0)
(0.00145278 0.472357 0)
(-0.00147772 0.472357 0)
(-0.00445672 0.472409 0)
(-0.00758585 0.472517 0)
(-0.0109782 0.472689 0)
(-0.0147637 0.472938 0)
(-0.0191033 0.473283 0)
(-0.0241885 0.473747 0)
(-0.0302386 0.474362 0)
(-0.037466 0.475159 0)
(-0.0459415 0.476172 0)
(-0.0553348 0.477407 0)
(-0.064189 0.478916 0)
(-0.0692857 0.481306 0)
(-0.0685841 0.480613 0)
(-0.0315271 0.464494 0)
(0.0168019 0.886682 0)
(0.0324096 0.918548 0)
(0.0471741 0.926 0)
(0.0491284 0.925757 0)
(0.0443325 0.923533 0)
(0.0377444 0.920496 0)
(0.031217 0.9177 0)
(0.0254176 0.915419 0)
(0.0204574 0.913651 0)
(0.0162302 0.912322 0)
(0.0125867 0.911333 0)
(0.00938178 0.910624 0)
(0.00648971 0.910131 0)
(0.00380954 0.909822 0)
(0.00124942 0.909674 0)
(-0.00127284 0.909674 0)
(-0.00383341 0.909821 0)
(-0.00651328 0.910128 0)
(-0.00940324 0.910617 0)
(-0.0126015 0.911322 0)
(-0.0162366 0.91231 0)
(-0.0204553 0.913638 0)
(-0.0254072 0.915406 0)
(-0.0312002 0.91769 0)
(-0.037726 0.920491 0)
(-0.0443162 0.923531 0)
(-0.0491154 0.925757 0)
(-0.0471648 0.926001 0)
(-0.0324038 0.918549 0)
(-0.0167999 0.886686 0)
(0.00634057 0.856988 0)
(0.0120257 0.892361 0)
(0.0233833 0.908515 0)
(0.028995 0.912646 0)
(0.0293784 0.911018 0)
(0.0269019 0.907331 0)
(0.0232616 0.903521 0)
(0.019464 0.900287 0)
(0.0159399 0.897765 0)
(0.0127927 0.895866 0)
(0.0100022 0.894453 0)
(0.00749815 0.893442 0)
(0.00520829 0.892736 0)
(0.00306558 0.892296 0)
(0.00100648 0.892084 0)
(-0.00102709 0.892087 0)
(-0.00308752 0.892294 0)
(-0.00523203 0.892736 0)
(-0.00752226 0.893431 0)
(-0.0100176 0.894435 0)
(-0.0127993 0.895846 0)
(-0.0159393 0.897744 0)
(-0.0194542 0.900267 0)
(-0.0232423 0.903506 0)
(-0.0268811 0.907327 0)
(-0.0293614 0.911017 0)
(-0.0289812 0.912649 0)
(-0.0233738 0.908518 0)
(-0.0120192 0.892363 0)
(-0.00633733 0.856993 0)
(0.00341579 0.838739 0)
(0.00556832 0.876901 0)
(0.0109743 0.89805 0)
(0.0156531 0.905959 0)
(0.018036 0.906285 0)
(0.0181678 0.903272 0)
(0.0168067 0.899434 0)
(0.0147315 0.895876 0)
(0.0124521 0.892983 0)
(0.0102089 0.890736 0)
(0.00810086 0.889041 0)
(0.00613357 0.887819 0)
(0.00429284 0.886955 0)
(0.00253924 0.886421 0)
(0.000834287 0.886159 0)
(-0.000853143 0.886166 0)
(-0.00255704 0.886416 0)
(-0.00431538 0.886962 0)
(-0.00616346 0.887803 0)
(-0.00812082 0.889013 0)
(-0.0102189 0.89071 0)
(-0.0124533 0.892953 0)
(-0.0147216 0.895847 0)
(-0.0167862 0.899411 0)
(-0.0181463 0.903273 0)
(-0.0180154 0.906283 0)
(-0.0156344 0.905966 0)
(-0.010965 0.898056 0)
(-0.00556172 0.876902 0)
(-0.003411 0.838748 0)
(0.00108082 0.820592 0)
(0.00172174 0.859677 0)
(0.00451543 0.881395 0)
(0.00779506 0.890864 0)
(0.0102742 0.892784 0)
(0.0114213 0.890857 0)
(0.0113815 0.887605 0)
(0.0105503 0.884234 0)
(0.00928417 0.881349 0)
(0.00783131 0.879007 0)
(0.00634281 0.877201 0)
(0.00487265 0.87588 0)
(0.0034463 0.874923 0)
(0.00205475 0.874346 0)
(0.000680061 0.874051 0)
(-0.000692223 0.874066 0)
(-0.00206921 0.874333 0)
(-0.00346503 0.874942 0)
(-0.0049062 0.87586 0)
(-0.00637272 0.877159 0)
(-0.00784991 0.878973 0)
(-0.00928666 0.881305 0)
(-0.0105399 0.884197 0)
(-0.0113657 0.887577 0)
(-0.011402 0.890866 0)
(-0.0102438 0.892779 0)
(-0.00776686 0.890886 0)
(-0.00450613 0.88141 0)
(-0.00171693 0.859676 0)
(-0.00107673 0.820605 0)
(-0.000578689 0.804476 0)
(-0.00110947 0.843234 0)
(0.000336455 0.864327 0)
(0.0026407 0.874108 0)
(0.00480294 0.876903 0)
(0.00625128 0.875891 0)
(0.00689125 0.873329 0)
(0.00686371 0.870381 0)
(0.0063547 0.867754 0)
(0.00555835 0.865518 0)
(0.00462102 0.863745 0)
(0.00361325 0.862434 0)
(0.00258284 0.861457 0)
(0.0015526 0.860881 0)
(0.000527042 0.860574 0)
(-0.00052538 0.860611 0)
(-0.00157891 0.860856 0)
(-0.00260665 0.861487 0)
(-0.00364118 0.862416 0)
(-0.00465346 0.863698 0)
(-0.00558075 0.865469 0)
(-0.0063566 0.86769 0)
(-0.00685255 0.870338 0)
(-0.0068743 0.873298 0)
(-0.00622546 0.875898 0)
(-0.00476603 0.876889 0)
(-0.00260962 0.874149 0)
(-0.000323838 0.864355 0)
(0.00111235 0.843233 0)
(0.000578744 0.804492 0)
(-0.00157058 0.790793 0)
(-0.00312411 0.828351 0)
(-0.00266028 0.848588 0)
(-0.00109023 0.858268 0)
(0.00071508 0.861499 0)
(0.00224351 0.861122 0)
(0.00323993 0.859188 0)
(0.00372408 0.85672 0)
(0.00375886 0.85449 0)
(0.00347092 0.852438 0)
(0.00301068 0.850784 0)
(0.00241495 0.849545 0)
(0.00175184 0.848596 0)
(0.00105835 0.848035 0)
(0.000354168 0.847737 0)
(-0.000370508 0.847816 0)
(-0.00108998 0.848013 0)
(-0.00177481 0.848631 0)
(-0.00241995 0.849526 0)
(-0.00302308 0.850756 0)
(-0.00350123 0.852372 0)
(-0.00376094 0.854394 0)
(-0.00370458 0.856673 0)
(-0.00321488 0.85915 0)
(-0.00221622 0.861131 0)
(-0.000690459 0.86148 0)
(0.00112196 0.858317 0)
(0.00268569 0.84863 0)
(0.00313065 0.828356 0)
(0.00156921 0.790808 0)
(-0.002135 0.778698 0)
(-0.00454627 0.8147 0)
(-0.0049271 0.833892 0)
(-0.0039758 0.843347 0)
(-0.00250528 0.84681 0)
(-0.000954992 0.846914 0)
(0.000277048 0.845524 0)
(0.00112158 0.843469 0)
(0.00155444 0.841562 0)
(0.00161494 0.839744 0)
(0.00154905 0.838275 0)
(0.00133707 0.837166 0)
(0.000988717 0.836309 0)
(0.000610692 0.835814 0)
(0.000208795 0.835543 0)
(-0.000228174 0.835601 0)
(-0.000637533 0.835745 0)
(-0.00101163 0.836327 0)
(-0.0012979 0.837121 0)
(-0.0015386 0.838279 0)
(-0.00166919 0.839681 0)
(-0.00154105 0.841459 0)
(-0.00108259 0.843342 0)
(-0.000247981 0.845388 0)
(0.000963123 0.846848 0)
(0.00248424 0.846745 0)
(0.00399883 0.843383 0)
(0.00496281 0.833952 0)
(0.00456256 0.814718 0)
(0.00213734 0.778715 0)
(-0.00247907 0.767556 0)
(-0.00555794 0.801976 0)
(-0.00668261 0.819981 0)
(-0.0062169 0.829142 0)
(-0.00501778 0.832639 0)
(-0.00347932 0.833249 0)
(-0.00210647 0.832152 0)
(-0.00110827 0.83052 0)
(-0.000344698 0.828766 0)
(4.74222e-05 0.8272 0)
(0.00029106 0.825976 0)
(0.000395354 0.825047 0)
(0.000302644 0.824391 0)
(0.000254308 0.824121 0)
(9.353e-05 0.823739 0)
(-0.000148145 0.823858 0)
(-0.00024841 0.823943 0)
(-0.000313202 0.824468 0)
(-0.000307317 0.825053 0)
(-0.000252878 0.826125 0)
(-8.91383e-05 0.827264 0)
(0.000293387 0.828823 0)
(0.00105656 0.830437 0)
(0.00219152 0.832044 0)
(0.00351645 0.832963 0)
(0.00498231 0.832578 0)
(0.00626076 0.829086 0)
(0.00669501 0.820041 0)
(0.00557703 0.802009 0)
(0.00248511 0.767579 0)
(-0.00269995 0.756945 0)
(-0.00623398 0.789852 0)
(-0.007886 0.806562 0)
(-0.0078657 0.815178 0)
(-0.00682876 0.818629 0)
(-0.00541113 0.819569 0)
(-0.00407615 0.818623 0)
(-0.00297979 0.817444 0)
(-0.00206584 0.815967 0)
(-0.00127421 0.814788 0)
(-0.000707786 0.813898 0)
(-0.000338796 0.813168 0)
(-8.19889e-05 0.812589 0)
(-1.56078e-05 0.812397 0)
(-3.94515e-05 0.811929 0)
(-4.60401e-05 0.812198 0)
(7.234e-05 0.812368 0)
(0.000255677 0.812762 0)
(0.000524292 0.813187 0)
(0.000816344 0.813931 0)
(0.00119508 0.814879 0)
(0.00187377 0.816278 0)
(0.00279859 0.817743 0)
(0.00398511 0.819001 0)
(0.00544906 0.819519 0)
(0.0068954 0.818751 0)
(0.00790532 0.815171 0)
(0.00793161 0.806637 0)
(0.00625607 0.789903 0)
(0.0027072 0.756982 0)
(-0.00282615 0.746581 0)
(-0.00661298 0.778019 0)
(-0.00866794 0.793407 0)
(-0.00900962 0.801154 0)
(-0.0080743 0.804573 0)
(-0.00694948 0.805424 0)
(-0.00563258 0.80504 0)
(-0.00433688 0.804104 0)
(-0.00328891 0.803231 0)
(-0.00219797 0.802433 0)
(-0.00149133 0.80182 0)
(-0.000980935 0.80122 0)
(-0.000452771 0.800539 0)
(-0.000304144 0.800008 0)
(-0.000141714 0.799811 0)
(0.000201844 0.80002 0)
(0.000407335 0.800328 0)
(0.000654578 0.80061 0)
(0.00102661 0.801105 0)
(0.00159909 0.801579 0)
(0.002334 0.802363 0)
(0.0032981 0.80352 0)
(0.00430278 0.80461 0)
(0.00534453 0.805585 0)
(0.00672844 0.806019 0)
(0.00812746 0.804921 0)
(0.00897582 0.801373 0)
(0.00866861 0.793516 0)
(0.00661426 0.778086 0)
(0.00282667 0.746626 0)
(-0.00289821 0.736271 0)
(-0.00671397 0.766217 0)
(-0.00901947 0.78043 0)
(-0.00971547 0.787191 0)
(-0.00905714 0.790516 0)
(-0.00796621 0.791289 0)
(-0.00667287 0.791535 0)
(-0.00522526 0.790811 0)
(-0.00395567 0.790384 0)
(-0.00291159 0.789789 0)
(-0.00212406 0.789163 0)
(-0.00156631 0.788607 0)
(-0.00106639 0.787945 0)
(-0.000665858 0.787225 0)
(-8.50128e-05 0.787389 0)
(0.000477136 0.787119 0)
(0.000726888 0.787329 0)
(0.00104321 0.787641 0)
(0.00148986 0.788279 0)
(0.00223982 0.788935 0)
(0.00323269 0.789479 0)
(0.00430051 0.790214 0)
(0.0053737 0.790739 0)
(0.00643071 0.791365 0)
(0.00764874 0.791782 0)
(0.00883394 0.790737 0)
(0.00952062 0.787422 0)
(0.00892098 0.780511 0)
(0.00667865 0.766277 0)
(0.00288625 0.736307 0)
(-0.00293807 0.725887 0)
(-0.00666024 0.754219 0)
(-0.00896796 0.767525 0)
(-0.00992281 0.773217 0)
(-0.00969666 0.776286 0)
(-0.00856918 0.777426 0)
(-0.00721789 0.777668 0)
(-0.00581626 0.777409 0)
(-0.00441516 0.776896 0)
(-0.00348525 0.776288 0)
(-0.00268332 0.775611 0)
(-0.00207692 0.775016 0)
(-0.00166629 0.774668 0)
(-0.000899692 0.774367 0)
(-0.000223861 0.774446 0)
(0.000316627 0.774113 0)
(0.000944765 0.77404 0)
(0.00153031 0.774399 0)
(0.00213746 0.774846 0)
(0.00285046 0.775609 0)
(0.00378172 0.776083 0)
(0.00474842 0.776504 0)
(0.00590534 0.776806 0)
(0.0073064 0.777125 0)
(0.0085091 0.777085 0)
(0.00937389 0.77618 0)
(0.00971668 0.773248 0)
(0.00880148 0.767509 0)
(0.0065868 0.754241 0)
(0.00291554 0.725893 0)
(-0.00295653 0.715343 0)
(-0.00662035 0.741948 0)
(-0.00864604 0.754441 0)
(-0.00971941 0.759225 0)
(-0.009752 0.761704 0)
(-0.0088032 0.763154 0)
(-0.00749629 0.763282 0)
(-0.00618806 0.763104 0)
(-0.00508991 0.762554 0)
(-0.00408076 0.762093 0)
(-0.00323068 0.761526 0)
(-0.00245959 0.761088 0)
(-0.00171218 0.760938 0)
(-0.000932912 0.761102 0)
(-0.000349235 0.76082 0)
(0.000170282 0.76088 0)
(0.0009966 0.760804 0)
(0.0018532 0.761043 0)
(0.00264714 0.761193 0)
(0.00338683 0.761634 0)
(0.00418024 0.762114 0)
(0.00508847 0.76252 0)
(0.00626085 0.762845 0)
(0.0076387 0.763007 0)
(0.00884707 0.762614 0)
(0.00962572 0.761525 0)
(0.00954429 0.759155 0)
(0.00852058 0.754337 0)
(0.00654223 0.74191 0)
(0.00293356 0.715308 0)
(-0.00298579 0.704609 0)
(-0.00665555 0.72944 0)
(-0.00839981 0.740952 0)
(-0.00926023 0.745388 0)
(-0.00935717 0.747153 0)
(-0.00867278 0.748221 0)
(-0.00774929 0.748391 0)
(-0.00660784 0.748231 0)
(-0.0054545 0.747868 0)
(-0.00447594 0.747606 0)
(-0.00360878 0.747416 0)
(-0.00264174 0.747139 0)
(-0.00162337 0.747193 0)
(-0.000963468 0.747017 0)
(-0.000516613 0.746927 0)
(0.000196274 0.746936 0)
(0.0010955 0.747126 0)
(0.0019742 0.747178 0)
(0.0028547 0.74741 0)
(0.00369699 0.74736 0)
(0.004491 0.74776 0)
(0.00542428 0.748101 0)
(0.00653929 0.748301 0)
(0.00778205 0.748423 0)
(0.00885341 0.748308 0)
(0.00928305 0.746906 0)
(0.009033 0.745181 0)
(0.00832319 0.7408 0)
(0.00660793 0.729354 0)
(0.0029705 0.704539 0)
(-0.00303739 0.693704 0)
(-0.00673816 0.716726 0)
(-0.00843554 0.727143 0)
(-0.00885749 0.731331 0)
(-0.00879903 0.732603 0)
(-0.0084035 0.73323 0)
(-0.00759311 0.733419 0)
(-0.00674 0.733163 0)
(-0.00571807 0.733244 0)
(-0.00465569 0.732952 0)
(-0.00371554 0.733011 0)
(-0.00262543 0.73273 0)
(-0.00181382 0.732844 0)
(-0.00116832 0.732675 0)
(-0.000379798 0.732661 0)
(0.000411447 0.732365 0)
(0.00110674 0.732508 0)
(0.00176747 0.732503 0)
(0.0026006 0.733044 0)
(0.00353731 0.73285 0)
(0.00463151 0.733227 0)
(0.00573534 0.733279 0)
(0.00673283 0.733279 0)
(0.00775503 0.733472 0)
(0.00845693 0.73361 0)
(0.00886356 0.732511 0)
(0.00898626 0.731051 0)
(0.00847511 0.726983 0)
(0.00674456 0.716627 0)
(0.00303412 0.693619 0)
(-0.00302856 0.682696 0)
(-0.00677284 0.703889 0)
(-0.00862749 0.713281 0)
(-0.00914011 0.717007 0)
(-0.00896168 0.718032 0)
(-0.0084519 0.718701 0)
(-0.00766046 0.718919 0)
(-0.00678619 0.718567 0)
(-0.00590805 0.718768 0)
(-0.00484306 0.718542 0)
(-0.00368322 0.718557 0)
(-0.00278967 0.718263 0)
(-0.00200175 0.718302 0)
(-0.00120746 0.718386 0)
(-0.000386401 0.718253 0)
(0.00032798 0.717879 0)
(0.000943378 0.717917 0)
(0.00171166 0.717986 0)
(0.00250167 0.718428 0)
(0.00356189 0.718418 0)
(0.00469798 0.718725 0)
(0.00581533 0.718591 0)
(0.00695597 0.718618 0)
(0.0077637 0.718834 0)
(0.00858158 0.71877 0)
(0.00931154 0.718181 0)
(0.00942885 0.716878 0)
(0.0087597 0.713182 0)
(0.00683009 0.703817 0)
(0.00304418 0.682618 0)
(-0.00294773 0.671518 0)
(-0.00671527 0.690996 0)
(-0.00872136 0.699486 0)
(-0.00947905 0.702772 0)
(-0.00947312 0.703767 0)
(-0.00892589 0.704348 0)
(-0.00800636 0.704489 0)
(-0.00696491 0.704265 0)
(-0.00600277 0.704296 0)
(-0.00494405 0.704279 0)
(-0.00382183 0.704202 0)
(-0.00290652 0.703957 0)
(-0.00203463 0.703999 0)
(-0.00122344 0.703973 0)
(-0.000447296 0.70391 0)
(0.000306162 0.703704 0)
(0.00105468 0.703798 0)
(0.00192782 0.703948 0)
(0.00274323 0.704195 0)
(0.00375129 0.704383 0)
(0.00484015 0.704466 0)
(0.00589157 0.704466 0)
(0.00704936 0.70447 0)
(0.00805174 0.704589 0)
(0.00899964 0.704504 0)
(0.00967208 0.703974 0)
(0.00967761 0.702794 0)
(0.00884854 0.699468 0)
(0.00678426 0.690967 0)
(0.00297236 0.671473 0)
(-0.00286955 0.660142 0)
(-0.00661015 0.678046 0)
(-0.00867483 0.685668 0)
(-0.00952015 0.688531 0)
(-0.00957751 0.689427 0)
(-0.00908281 0.689923 0)
(-0.00813872 0.690088 0)
(-0.0070556 0.69002 0)
(-0.00601144 0.690033 0)
(-0.00495957 0.690081 0)
(-0.00394546 0.690022 0)
(-0.00301532 0.689914 0)
(-0.00213632 0.689878 0)
(-0.00125689 0.689806 0)
(-0.000408752 0.689794 0)
(0.000385673 0.689741 0)
(0.0011953 0.689807 0)
(0.00204474 0.689935 0)
(0.00292864 0.690049 0)
(0.0038659 0.690238 0)
(0.00488339 0.690194 0)
(0.00595361 0.690206 0)
(0.00701646 0.690156 0)
(0.00813246 0.69016 0)
(0.00912273 0.690016 0)
(0.00969525 0.68958 0)
(0.00965146 0.688606 0)
(0.00876773 0.685703 0)
(0.00666475 0.678052 0)
(0.00288819 0.66013 0)
(-0.00278804 0.648529 0)
(-0.00644693 0.664959 0)
(-0.00849021 0.671719 0)
(-0.00936744 0.674133 0)
(-0.00945932 0.674809 0)
(-0.00896071 0.67515 0)
(-0.00807145 0.675244 0)
(-0.007046 0.67534 0)
(-0.00598541 0.675338 0)
(-0.00496073 0.675477 0)
(-0.00400776 0.675418 0)
(-0.00307606 0.675455 0)
(-0.00218282 0.675391 0)
(-0.00126927 0.675318 0)
(-0.000371538 0.67535 0)
(0.000488984 0.675388 0)
(0.00132839 0.675417 0)
(0.00214109 0.675526 0)
(0.00305733 0.675534 0)
(0.00393018 0.675666 0)
(0.0048521 0.675511 0)
(0.00591973 0.675569 0)
(0.00694008 0.675406 0)
(0.0080153 0.67528 0)
(0.00897209 0.67518 0)
(0.00952317 0.67492 0)
(0.00944331 0.674244 0)
(0.00853791 0.671785 0)
(0.00647605 0.664992 0)
(0.00279786 0.648543 0)
(-0.00270444 0.636675 0)
(-0.00623639 0.651688 0)
(-0.00815982 0.657572 0)
(-0.00900045 0.65957 0)
(-0.00914192 0.659911 0)
(-0.00869027 0.660028 0)
(-0.00782182 0.660051 0)
(-0.0068725 0.660258 0)
(-0.00584264 0.660362 0)
(-0.00487079 0.660485 0)
(-0.00400309 0.66052 0)
(-0.00308455 0.660643 0)
(-0.00221513 0.660654 0)
(-0.00124665 0.66065 0)
(-0.000290621 0.660669 0)
(0.000569227 0.660745 0)
(0.00141401 0.660752 0)
(0.00221599 0.660732 0)
(0.00310982 0.660636 0)
(0.00389217 0.660557 0)
(0.00476372 0.660455 0)
(0.00580344 0.660476 0)
(0.00669753 0.660283 0)
(0.00773683 0.660125 0)
(0.00869249 0.660002 0)
(0.00916031 0.660011 0)
(0.0089981 0.659704 0)
(0.00815139 0.657646 0)
(0.00623385 0.651728 0)
(0.00270456 0.636698 0)
(-0.00263695 0.6246 0)
(-0.00602675 0.638216 0)
(-0.0077691 0.643192 0)
(-0.00840743 0.644812 0)
(-0.00857541 0.644848 0)
(-0.00825706 0.644571 0)
(-0.00749107 0.644592 0)
(-0.00656691 0.64485 0)
(-0.00565507 0.645014 0)
(-0.00478847 0.645144 0)
(-0.00390446 0.645286 0)
(-0.00301064 0.645452 0)
(-0.00209225 0.645535 0)
(-0.00121712 0.645589 0)
(-0.000307567 0.645622 0)
(0.000658678 0.645671 0)
(0.00144725 0.645585 0)
(0.00218002 0.645458 0)
(0.00298578 0.645328 0)
(0.00381446 0.645093 0)
(0.00468312 0.645072 0)
(0.005571 0.644943 0)
(0.0065327 0.644864 0)
(0.0074165 0.644659 0)
(0.0082105 0.644561 0)
(0.00854806 0.644975 0)
(0.0083228 0.644941 0)
(0.00770056 0.64324 0)
(0.00599624 0.638239 0)
(0.00262863 0.624613 0)
(-0.0025877 0.612345 0)
(-0.00586125 0.624554 0)
(-0.0074593 0.628615 0)
(-0.00782693 0.629787 0)
(-0.00779402 0.62979 0)
(-0.00767875 0.629113 0)
(-0.007089 0.62893 0)
(-0.00625642 0.629237 0)
(-0.00545406 0.629357 0)
(-0.00457527 0.629553 0)
(-0.0037022 0.629721 0)
(-0.00289303 0.62991 0)
(-0.00205776 0.630022 0)
(-0.00113636 0.630085 0)
(-0.000204044 0.630132 0)
(0.000623737 0.630141 0)
(0.00134412 0.630085 0)
(0.00209314 0.629864 0)
(0.00283233 0.62968 0)
(0.00369048 0.629571 0)
(0.00454494 0.629401 0)
(0.00537331 0.629212 0)
(0.00625328 0.629194 0)
(0.00706976 0.628929 0)
(0.00762647 0.629082 0)
(0.00768714 0.629919 0)
(0.00767286 0.629889 0)
(0.00736135 0.628605 0)
(0.00581911 0.624542 0)
(0.00257585 0.612336 0)
(-0.00254758 0.599956 0)
(-0.00574727 0.610749 0)
(-0.00728954 0.613934 0)
(-0.00757798 0.61457 0)
(-0.00711962 0.614548 0)
(-0.00676204 0.613933 0)
(-0.00642394 0.613225 0)
(-0.00592807 0.613691 0)
(-0.00527737 0.613547 0)
(-0.00436733 0.613807 0)
(-0.00352145 0.613896 0)
(-0.00273804 0.614159 0)
(-0.00194056 0.614167 0)
(-0.00107704 0.614276 0)
(-0.00015818 0.614282 0)
(0.000672012 0.614388 0)
(0.00124045 0.614415 0)
(0.00183477 0.614123 0)
(0.00273789 0.613896 0)
(0.00357212 0.613848 0)
(0.00428821 0.613675 0)
(0.0052204 0.61337 0)
(0.00597287 0.613594 0)
(0.00641825 0.613231 0)
(0.00664203 0.613763 0)
(0.00695199 0.61473 0)
(0.0074173 0.614608 0)
(0.00721684 0.613861 0)
(0.00571617 0.6107 0)
(0.00253869 0.599921 0)
(-0.00251541 0.58747 0)
(-0.00566611 0.596852 0)
(-0.00719827 0.599232 0)
(-0.0075694 0.599359 0)
(-0.00710494 0.599066 0)
(-0.0062658 0.598648 0)
(-0.00580304 0.597727 0)
(-0.00549511 0.598292 0)
(-0.00487107 0.597703 0)
(-0.00419258 0.598066 0)
(-0.00345415 0.598006 0)
(-0.00267009 0.598447 0)
(-0.00190901 0.598281 0)
(-0.00110909 0.598462 0)
(-0.000378094 0.598376 0)
(0.000316801 0.598789 0)
(0.00112608 0.598833 0)
(0.0019546 0.598569 0)
(0.00272315 0.598169 0)
(0.00350617 0.598153 0)
(0.00426836 0.597953 0)
(0.00493586 0.597602 0)
(0.00547975 0.598149 0)
(0.00580767 0.597892 0)
(0.00619795 0.598496 0)
(0.00696042 0.599284 0)
(0.00751403 0.599328 0)
(0.00718734 0.599125 0)
(0.00566107 0.59678 0)
(0.00251376 0.587418 0)
(-0.00248815 0.574919 0)
(-0.00558744 0.582894 0)
(-0.00710337 0.58454 0)
(-0.00755504 0.584248 0)
(-0.00730264 0.583694 0)
(-0.0065821 0.583304 0)
(-0.00589905 0.582559 0)
(-0.005218 0.582738 0)
(-0.0045873 0.582382 0)
(-0.00404719 0.582594 0)
(-0.00338308 0.582611 0)
(-0.00263097 0.58287 0)
(-0.00184482 0.582837 0)
(-0.0011951 0.58299 0)
(-0.000572387 0.582896 0)
(0.000156457 0.583217 0)
(0.00106542 0.583323 0)
(0.00196318 0.58313 0)
(0.00266973 0.582787 0)
(0.0033808 0.582753 0)
(0.0041238 0.582546 0)
(0.00466851 0.582328 0)
(0.00525433 0.582643 0)
(0.00590973 0.582689 0)
(0.00655541 0.583274 0)
(0.00726344 0.583899 0)
(0.00759094 0.5842 0)
(0.00714238 0.584439 0)
(0.00560591 0.582821 0)
(0.00249334 0.574866 0)
(-0.00242726 0.562335 0)
(-0.00545342 0.5689 0)
(-0.00695468 0.569852 0)
(-0.00743877 0.56919 0)
(-0.00728384 0.568445 0)
(-0.00671672 0.568048 0)
(-0.00601041 0.567679 0)
(-0.00525785 0.567605 0)
(-0.00457521 0.567482 0)
(-0.00395075 0.567616 0)
(-0.0032533 0.567673 0)
(-0.00253307 0.567804 0)
(-0.00180532 0.567856 0)
(-0.00114807 0.567941 0)
(-0.000495731 0.567959 0)
(0.00024587 0.568079 0)
(0.00107387 0.568122 0)
(0.00186864 0.568043 0)
(0.00255263 0.567904 0)
(0.00322698 0.567834 0)
(0.00390955 0.567712 0)
(0.00455892 0.567579 0)
(0.00524911 0.567629 0)
(0.00596603 0.567718 0)
(0.0066806 0.568105 0)
(0.00730067 0.568627 0)
(0.00750759 0.569143 0)
(0.00701922 0.569776 0)
(0.00548511 0.568844 0)
(0.00243583 0.562294 0)
(-0.00231646 0.549687 0)
(-0.00524093 0.554902 0)
(-0.00674222 0.55517 0)
(-0.00724548 0.554142 0)
(-0.00714069 0.553207 0)
(-0.00662972 0.552738 0)
(-0.00595136 0.552509 0)
(-0.00521735 0.552416 0)
(-0.00448926 0.552467 0)
(-0.00383169 0.552592 0)
(-0.0031646 0.552675 0)
(-0.00246368 0.55277 0)
(-0.00177151 0.552826 0)
(-0.00111005 0.552878 0)
(-0.000473362 0.552919 0)
(0.000226616 0.552953 0)
(0.00105674 0.552945 0)
(0.00186788 0.552916 0)
(0.00253429 0.55284 0)
(0.00313816 0.552759 0)
(0.00376205 0.552678 0)
(0.00441205 0.552576 0)
(0.0051351 0.552455 0)
(0.00587263 0.552494 0)
(0.00658984 0.552792 0)
(0.00716338 0.553332 0)
(0.0073299 0.554086 0)
(0.0068195 0.555128 0)
(0.00527939 0.554874 0)
(0.00232722 0.549667 0)
(-0.00219888 0.536941 0)
(-0.00499246 0.540912 0)
(-0.00644997 0.540499 0)
(-0.00697188 0.539099 0)
(-0.00690478 0.537963 0)
(-0.0064142 0.537418 0)
(-0.00576963 0.537231 0)
(-0.00507224 0.537151 0)
(-0.00436339 0.537281 0)
(-0.00371902 0.537396 0)
(-0.00306163 0.537523 0)
(-0.00239242 0.537603 0)
(-0.00172093 0.537658 0)
(-0.00107 0.537657 0)
(-0.000433585 0.537775 0)
(0.000284749 0.537831 0)
(0.00104481 0.53779 0)
(0.00176967 0.537753 0)
(0.00243401 0.537623 0)
(0.00304365 0.537479 0)
(0.00365955 0.537413 0)
(0.00426809 0.537279 0)
(0.00495705 0.537157 0)
(0.00570398 0.537192 0)
(0.0063642 0.537397 0)
(0.00689397 0.537969 0)
(0.00705226 0.539018 0)
(0.00653022 0.540499 0)
(0.00503158 0.540917 0)
(0.00221104 0.536948 0)
(-0.0021031 0.524094 0)
(-0.00474346 0.526901 0)
(-0.00606742 0.525808 0)
(-0.00655661 0.52408 0)
(-0.00651688 0.522663 0)
(-0.00605905 0.522036 0)
(-0.00548567 0.521834 0)
(-0.00489895 0.521811 0)
(-0.00424575 0.521971 0)
(-0.0035861 0.52206 0)
(-0.00297104 0.522211 0)
(-0.00233074 0.522304 0)
(-0.00168845 0.522365 0)
(-0.00100074 0.522373 0)
(-0.000307906 0.52246 0)
(0.00033578 0.522482 0)
(0.000957444 0.522433 0)
(0.00159928 0.522431 0)
(0.00227277 0.522279 0)
(0.00294328 0.522135 0)
(0.00355135 0.521999 0)
(0.00414704 0.521849 0)
(0.00480182 0.521779 0)
(0.00543537 0.521805 0)
(0.00603645 0.522003 0)
(0.00653886 0.522497 0)
(0.0066479 0.523961 0)
(0.00614506 0.525853 0)
(0.00477655 0.526937 0)
(0.00211319 0.524129 0)
(-0.00202673 0.511176 0)
(-0.00452212 0.512843 0)
(-0.00568086 0.511067 0)
(-0.00600184 0.509057 0)
(-0.00598529 0.507343 0)
(-0.00568191 0.506474 0)
(-0.00519788 0.506331 0)
(-0.00465104 0.506334 0)
(-0.00408052 0.506518 0)
(-0.00349395 0.506608 0)
(-0.00286352 0.506751 0)
(-0.00224663 0.506872 0)
(-0.00160665 0.506968 0)
(-0.000965574 0.507002 0)
(-0.000327983 0.507048 0)
(0.000328041 0.506976 0)
(0.000977263 0.506934 0)
(0.00150387 0.506878 0)
(0.00211134 0.506839 0)
(0.00281925 0.506716 0)
(0.00341838 0.506604 0)
(0.00399507 0.506425 0)
(0.00458443 0.506336 0)
(0.00516065 0.50638 0)
(0.0056375 0.506553 0)
(0.00609942 0.507126 0)
(0.00619623 0.508977 0)
(0.00573453 0.511156 0)
(0.00453851 0.512907 0)
(0.00203101 0.511233 0)
(-0.00196329 0.498228 0)
(-0.00435072 0.498761 0)
(-0.00540567 0.496305 0)
(-0.00553273 0.493973 0)
(-0.00540657 0.492167 0)
(-0.00516562 0.490866 0)
(-0.00489821 0.490861 0)
(-0.00441972 0.490695 0)
(-0.0038421 0.491066 0)
(-0.00336743 0.491094 0)
(-0.00275122 0.491219 0)
(-0.00213379 0.491372 0)
(-0.00154119 0.491527 0)
(-0.000897778 0.491577 0)
(-0.000351167 0.491641 0)
(0.000185309 0.491511 0)
(0.000887222 0.491425 0)
(0.00148744 0.491356 0)
(0.00206625 0.491402 0)
(0.00276103 0.491304 0)
(0.00329615 0.491295 0)
(0.00375068 0.49109 0)
(0.0043963 0.490862 0)
(0.00483427 0.490954 0)
(0.00530257 0.491117 0)
(0.00563969 0.491945 0)
(0.00560775 0.494014 0)
(0.00538508 0.496416 0)
(0.00433714 0.498838 0)
(0.00195914 0.498295 0)
(-0.00191066 0.485288 0)
(-0.00422897 0.484706 0)
(-0.00526315 0.481604 0)
(-0.00537903 0.478891 0)
(-0.00514013 0.477143 0)
(-0.00493391 0.475683 0)
(-0.00458454 0.475781 0)
(-0.00413522 0.475285 0)
(-0.00362112 0.475864 0)
(-0.0030332 0.475687 0)
(-0.00249955 0.475782 0)
(-0.00192549 0.475947 0)
(-0.00135416 0.476086 0)
(-0.000863171 0.476084 0)
(-0.000285983 0.47632 0)
(0.000290862 0.475978 0)
(0.000718752 0.475991 0)
(0.00131133 0.476121 0)
(0.00198053 0.476005 0)
(0.00250955 0.475907 0)
(0.00309288 0.476047 0)
(0.00365463 0.475792 0)
(0.00408548 0.475557 0)
(0.00466143 0.475799 0)
(0.00510946 0.47587 0)
(0.00514517 0.476898 0)
(0.00524237 0.478954 0)
(0.00517977 0.481689 0)
(0.00419111 0.484773 0)
(0.00190004 0.485349 0)
(-0.00186652 0.472398 0)
(-0.00413898 0.470732 0)
(-0.00519247 0.467045 0)
(-0.00543569 0.464006 0)
(-0.00519457 0.462267 0)
(-0.00489 0.461074 0)
(-0.00448497 0.460917 0)
(-0.00397677 0.460481 0)
(-0.00342302 0.460837 0)
(-0.00280249 0.460704 0)
(-0.00226901 0.460795 0)
(-0.00178057 0.460885 0)
(-0.00128735 0.460975 0)
(-0.000757711 0.460935 0)
(-0.000201505 0.461204 0)
(0.000323142 0.460879 0)
(0.00073798 0.460905 0)
(0.00120253 0.46109 0)
(0.00174679 0.460883 0)
(0.00229335 0.460853 0)
(0.00292765 0.460911 0)
(0.00357498 0.460701 0)
(0.00403934 0.460612 0)
(0.00452061 0.460854 0)
(0.00489846 0.461021 0)
(0.00510011 0.462067 0)
(0.00528111 0.46399 0)
(0.00510408 0.46708 0)
(0.00409594 0.470773 0)
(0.00185402 0.472441 0)
(-0.00182354 0.459586 0)
(-0.00404758 0.456866 0)
(-0.00509555 0.452655 0)
(-0.00539802 0.449373 0)
(-0.00524247 0.447556 0)
(-0.00485637 0.446547 0)
(-0.00439998 0.446206 0)
(-0.00386496 0.446009 0)
(-0.0033113 0.446109 0)
(-0.00277405 0.446084 0)
(-0.00221058 0.446157 0)
(-0.00172985 0.446152 0)
(-0.00126187 0.44624 0)
(-0.000722449 0.446241 0)
(-0.000217718 0.446344 0)
(0.000272117 0.446199 0)
(0.000743332 0.446174 0)
(0.001228 0.446247 0)
(0.00171972 0.446115 0)
(0.0022421 0.44615 0)
(0.00282187 0.446086 0)
(0.00340942 0.445972 0)
(0.00393845 0.445906 0)
(0.00439023 0.446021 0)
(0.00482282 0.446409 0)
(0.00519945 0.44741 0)
(0.0053372 0.449316 0)
(0.00504444 0.452657 0)
(0.0040161 0.456884 0)
(0.00181311 0.459609 0)
(-0.00177642 0.446865 0)
(-0.00393814 0.443111 0)
(-0.00495299 0.438408 0)
(-0.00525154 0.434896 0)
(-0.00513012 0.43294 0)
(-0.00475065 0.431977 0)
(-0.00424843 0.431601 0)
(-0.00373421 0.431482 0)
(-0.00322067 0.431518 0)
(-0.00268863 0.431566 0)
(-0.00217358 0.431636 0)
(-0.00169781 0.431617 0)
(-0.00120525 0.431712 0)
(-0.000699113 0.43174 0)
(-0.000217173 0.431788 0)
(0.000247426 0.431712 0)
(0.000710607 0.431686 0)
(0.0012023 0.431718 0)
(0.0016642 0.431599 0)
(0.00215582 0.431591 0)
(0.00270598 0.431477 0)
(0.00326751 0.431396 0)
(0.00381496 0.431314 0)
(0.00428202 0.431347 0)
(0.00473215 0.431847 0)
(0.00511788 0.432854 0)
(0.00523097 0.434859 0)
(0.0049269 0.438404 0)
(0.00391823 0.443118 0)
(0.00176818 0.446873 0)
(-0.00170718 0.434244 0)
(-0.003786 0.429471 0)
(-0.00477608 0.424292 0)
(-0.00507063 0.420541 0)
(-0.00493908 0.418422 0)
(-0.00455996 0.417419 0)
(-0.00408969 0.417005 0)
(-0.00359525 0.416938 0)
(-0.00308472 0.416952 0)
(-0.00259015 0.417047 0)
(-0.00214439 0.41713 0)
(-0.00165883 0.417141 0)
(-0.00114563 0.41721 0)
(-0.000682577 0.417256 0)
(-0.000235525 0.417248 0)
(0.000223644 0.417257 0)
(0.000703493 0.417211 0)
(0.0011764 0.417211 0)
(0.0016167 0.417133 0)
(0.00207574 0.417062 0)
(0.00258234 0.416952 0)
(0.00309663 0.416881 0)
(0.00359152 0.416811 0)
(0.00414703 0.416897 0)
(0.00464274 0.417315 0)
(0.00496662 0.418371 0)
(0.00507009 0.420532 0)
(0.00476399 0.424288 0)
(0.00378008 0.429474 0)
(0.00170507 0.434238 0)
(-0.00161792 0.421702 0)
(-0.0035928 0.415963 0)
(-0.00454875 0.410314 0)
(-0.00483992 0.40632 0)
(-0.00469848 0.404011 0)
(-0.00433845 0.402951 0)
(-0.00388941 0.402516 0)
(-0.00341968 0.402441 0)
(-0.00294043 0.402437 0)
(-0.00244423 0.402528 0)
(-0.00208011 0.402616 0)
(-0.00163798 0.402789 0)
(-0.00109867 0.402811 0)
(-0.000678342 0.402828 0)
(-0.00022231 0.402792 0)
(0.000224419 0.40284 0)
(0.000642946 0.402819 0)
(0.00111788 0.402817 0)
(0.00154461 0.402767 0)
(0.00201839 0.402679 0)
(0.00250322 0.402558 0)
(0.0029549 0.402533 0)
(0.00349177 0.402491 0)
(0.00396124 0.402595 0)
(0.00435256 0.402922 0)
(0.00472601 0.404005 0)
(0.00483893 0.406343 0)
(0.00454132 0.410308 0)
(0.00359454 0.41596 0)
(0.0016203 0.42169 0)
(-0.00153369 0.409224 0)
(-0.00339034 0.402584 0)
(-0.00426244 0.396463 0)
(-0.0045483 0.392259 0)
(-0.00442921 0.389731 0)
(-0.00407119 0.388594 0)
(-0.00371399 0.38817 0)
(-0.00327916 0.388067 0)
(-0.00282083 0.388065 0)
(-0.00236398 0.388139 0)
(-0.00188829 0.388203 0)
(-0.00147519 0.388383 0)
(-0.0011254 0.388428 0)
(-0.000706705 0.388486 0)
(-0.000246275 0.388479 0)
(0.000212045 0.388493 0)
(0.00069478 0.388502 0)
(0.00108687 0.388455 0)
(0.00152418 0.388463 0)
(0.00196195 0.388318 0)
(0.00240533 0.388263 0)
(0.00286298 0.388193 0)
(0.00327052 0.388175 0)
(0.00371661 0.388226 0)
(0.00408849 0.388603 0)
(0.00440933 0.389707 0)
(0.00451465 0.392289 0)
(0.00425534 0.396453 0)
(0.00339133 0.402574 0)
(0.00153521 0.409211 0)
(-0.00146303 0.396819 0)
(-0.00320529 0.389318 0)
(-0.00396798 0.382727 0)
(-0.00417112 0.378369 0)
(-0.00411927 0.375565 0)
(-0.00386552 0.374381 0)
(-0.00353807 0.373966 0)
(-0.00312368 0.373882 0)
(-0.00270297 0.373925 0)
(-0.00228715 0.37401 0)
(-0.00181365 0.37407 0)
(-0.0014001 0.374109 0)
(-0.00104733 0.374166 0)
(-0.000620405 0.37431 0)
(-0.00020612 0.374322 0)
(0.000202808 0.374323 0)
(0.000629043 0.374293 0)
(0.00104627 0.374237 0)
(0.00144761 0.374212 0)
(0.00188012 0.374133 0)
(0.00232526 0.374066 0)
(0.00272008 0.373952 0)
(0.00312961 0.373912 0)
(0.00350037 0.373944 0)
(0.00383074 0.374403 0)
(0.0040848 0.375603 0)