/*--------------------------------*- C++ -*----------------------------------*\
| =========                 |                                                 |
| \\      /  F ield         | OpenFOAM: The Open Source CFD Toolbox           |
|  \\    /   O peration     | Version:  2312                                  |
|   \\  /    A nd           | Website:  www.openfoam.com                      |
|    \\/     M anipulation  |                                                 |
\*---------------------------------------------------------------------------*/
FoamFile
{
    version     2.0;
    format      ascii;
    arch        "LSB;label=32;scalar=64";
    class       volScalarField;
    location    "100";
    object      div(phi);
}
// * * * * * * * * * * * * * * * * * * * * * * * * * * * * * * * * * * * * * //

dimensions      [0 0 -1 0 0 0 0];

internalField   nonuniform List<scalar> 
10720
(
0.00118946
-0.000797329
0.00044726
-0.000529321
0.000185624
3.79543e-05
0.000263177
0.000257805
7.43863e-05
2.27679e-06
-7.64441e-07
6.6978e-06
2.08256e-05
6.50669e-06
9.41872e-07
-1.86023e-05
-5.99385e-06
-1.01255e-05
1.92698e-05
1.09722e-05
4.88441e-05
3.27404e-05
5.78231e-05
4.02916e-05
4.51677e-05
7.14378e-05
0.000201218
0.000180726
1.45048e-05
-0.000142257
0.000777976
0.000130846
0.000458751
0.000991323
5.84824e-05
-0.000847748
0.0021128
0.00032915
0.00269123
-0.000823508
0.00092706
-0.000303815
0.000282876
-0.000269585
-0.000169436
4.28342e-05
0.00024924
0.000162698
0.000192394
9.5826e-05
0.000118229
5.6853e-05
9.39646e-05
6.0853e-05
0.000103341
6.15508e-05
0.000107811
3.25519e-05
9.63125e-05
-3.95682e-05
2.46454e-05
-0.000236134
-0.000278942
-0.000265906
-0.000236813
-0.000123355
-0.000105172
-9.70563e-05
-0.000334259
-0.000173193
-0.000162473
-0.000255384
-0.000183072
-0.000323648
-0.00021038
-0.000361287
-0.00123031
0.000623721
0.000525265
-0.000201754
0.000298338
-0.000394425
0.000319775
0.000113819
0.000389444
0.000145237
4.32886e-05
-1.70664e-05
-5.84101e-06
9.23041e-06
3.01923e-05
1.92518e-05
2.14518e-05
1.17343e-05
3.18364e-05
4.21563e-05
7.41619e-05
8.79278e-05
0.000122053
0.000132883
0.000154624
0.000148445
0.000135582
0.00013796
0.00016571
0.000191187
0.000138056
0.000100758
0.000623498
0.000298341
0.000514855
0.000817353
0.000566097
-0.000107647
0.00183336
-8.28388e-05
0.000193251
8.16821e-05
0.000438702
-0.000108888
3.87463e-05
-0.000178628
-0.000108788
0.000118019
0.000159281
0.00015838
0.000151707
0.000105462
0.000109194
7.27305e-05
0.000103607
8.10989e-05
0.000115769
8.26557e-05
0.00010858
5.22024e-05
6.97693e-05
-3.28743e-05
-4.19447e-05
-0.000250526
-0.000302962
-0.000326826
-0.000269899
-0.000195937
-0.000127696
-9.17e-05
-0.000314756
-0.000206049
-0.000213291
-0.000301657
-0.000265647
-0.000385135
-0.000326259
-0.000476513
-0.00117661
0.000379078
-0.000787129
0.000588553
-0.000554835
0.000430704
2.20496e-05
0.00041529
0.00024821
0.000150407
-9.96e-06
-3.92017e-05
-3.67514e-05
-9.66972e-06
-4.61027e-06
6.10858e-06
-7.70882e-06
-1.07164e-05
-1.46353e-05
-1.08033e-05
-2.97959e-06
-3.59919e-06
7.25589e-06
-9.74401e-07
-2.29853e-06
-1.16405e-05
-3.00906e-05
-6.18727e-06
5.91462e-05
5.43447e-05
-5.45633e-05
-0.000170225
0.000421131
-9.80122e-06
0.000209275
0.000543096
-0.00018191
-0.000639999
0.000840544
0.000284248
0.00144588
0.000733552
-0.000299472
0.000228527
-0.000189243
-0.000140444
6.42468e-05
0.000131395
0.000129504
0.000167339
0.000104717
0.000125379
6.36667e-05
8.88007e-05
5.26552e-05
8.26365e-05
6.28895e-05
7.96059e-05
6.53274e-05
6.07529e-05
5.12629e-05
1.40351e-05
-4.47873e-06
-0.000125624
-0.00018862
-0.000193652
-0.000169148
-0.000108035
-5.53017e-05
-9.98136e-05
-0.000268764
-0.000112552
-0.00012797
-0.000198404
-0.00012956
-0.00024847
-0.00012807
-0.000245263
-0.000808706
0.000380797
0.000600213
-0.000287745
0.000256345
2.71142e-05
0.00033597
0.000371627
0.000232472
-5.75576e-06
-3.62106e-05
-5.90181e-05
-4.60728e-05
-1.14243e-05
1.17282e-06
1.88569e-05
9.70531e-06
2.38663e-05
2.52386e-05
5.0673e-05
6.40133e-05
8.97847e-05
0.000107788
0.000126307
0.000136702
0.000136527
0.000125878
0.00013199
0.000153231
0.000183685
0.000141715
0.000124144
0.000511984
0.000277851
0.000463525
0.000684057
0.000513308
9.23499e-06
0.00140439
-2.6305e-05
-0.000110331
-0.00018818
0.000145871
-0.000156187
-0.000112429
9.56827e-06
2.78503e-05
0.000126515
0.000156511
0.000137131
0.000127774
0.000112219
8.12535e-05
9.20158e-05
6.71823e-05
9.95568e-05
7.38445e-05
0.000103695
6.74764e-05
8.03771e-05
3.16522e-05
1.10288e-05
-6.35262e-05
-0.000154448
-0.000244155
-0.000259543
-0.000262385
-0.000201612
-0.000151625
-0.000116898
-0.000269664
-0.000207158
-0.000222907
-0.000310653
-0.00028164
-0.000408174
-0.000352521
-0.000509063
-0.00103861
0.000199513
0.000357046
0.00010594
8.68613e-05
0.000263856
0.000378098
0.000263667
7.37041e-05
4.39201e-05
-7.51382e-05
-8.44593e-05
-5.65616e-05
-3.9956e-05
-8.36959e-06
-7.93474e-06
-3.66458e-07
-9.53507e-06
-4.67259e-06
-5.95008e-06
1.4779e-06
4.83393e-07
6.62972e-06
8.00678e-07
-2.92942e-06
-1.32815e-05
-3.14045e-05
-2.78519e-05
2.58538e-05
2.69627e-06
-0.000103535
-0.000202495
0.000337797
-5.13119e-05
0.000143249
0.000518933
-0.000266081
-0.000769674
0.000662744
0.000235333
0.00110111
-4.05774e-05
-3.91175e-05
-0.000119228
-8.36713e-05
-2.64857e-05
0.000138352
0.000112039
0.000137818
0.000116837
0.000135494
8.48253e-05
0.000103512
5.63246e-05
8.40159e-05
5.15614e-05
7.97048e-05
5.13211e-05
7.16825e-05
3.89143e-05
5.27558e-05
5.00259e-06
6.96261e-06
-8.64557e-05
-0.000102636
-0.000158241
-0.000127192
-0.0001011
-2.42641e-05
-9.22304e-05
-0.000178747
-7.10573e-05
-7.56088e-05
-0.000154595
-7.13906e-05
-0.000196113
-5.14166e-05
-0.000185761
-0.000491772
0.000234437
0.000105887
0.00011272
0.000305823
0.000232136
0.00027669
0.000217927
0.000110532
-9.11678e-05
-7.88816e-05
-9.14965e-05
-6.29278e-05
-3.59534e-05
-3.75488e-06
1.44775e-06
1.72297e-05
1.57552e-05
3.62347e-05
4.43157e-05
6.90452e-05
8.13859e-05
0.000104409
0.000114798
0.000128222
0.000128826
0.00012671
0.000131149
0.000149378
0.000173834
0.00014456
0.000129099
0.000456488
0.000275814
0.000448449
0.000705204
0.000502582
3.06141e-05
0.00136601
4.04323e-05
-5.92235e-05
3.52022e-05
-8.63012e-05
-0.000179895
-3.32352e-05
8.53082e-05
1.79378e-05
0.000125224
0.000118562
0.000133789
0.000117055
0.000105511
9.40433e-05
7.43144e-05
8.13919e-05
6.61012e-05
8.26951e-05
6.5637e-05
7.43882e-05
5.02663e-05
3.91399e-05
2.34418e-06
-4.2289e-05
-0.000107032
-0.000175284
-0.000206584
-0.000234804
-0.00019739
-0.00017078
-0.000120245
-0.000221576
-0.000192296
-0.000214477
-0.000280502
-0.000267964
-0.000372233
-0.000337203
-0.000466845
-0.000794071
3.53903e-05
-0.000169075
0.000336634
0.000102728
0.000269987
0.00027952
0.00011757
-2.23656e-05
-8.91005e-06
-0.000108332
-9.20943e-05
-7.63184e-05
-3.50289e-05
-2.15729e-05
-7.84226e-07
-4.34586e-06
2.42868e-06
-9.26676e-07
5.49196e-06
6.22274e-06
9.23699e-06
1.02438e-05
7.45391e-06
2.33533e-06
-4.62604e-06
-2.2386e-05
-2.72831e-05
-9.35836e-06
-3.04068e-05
-0.000166631
-0.000222395
0.000244685
-9.15971e-05
9.14793e-05
0.000483406
-0.00037277
-0.000926083
0.000720083
0.000196008
0.000895577
7.58747e-05
-0.000269204
-4.57891e-05
-4.96539e-05
-2.18469e-05
0.000135609
8.07342e-05
9.87419e-05
0.000113725
9.62034e-05
0.000110857
7.24405e-05
8.88662e-05
5.09699e-05
7.38954e-05
4.28309e-05
6.55007e-05
3.32119e-05
5.35054e-05
1.28162e-05
3.23736e-05
-2.59906e-05
-1.54718e-05
-9.71218e-05
-6.98667e-05
-0.000136661
-4.98975e-05
-5.09447e-05
-3.61109e-05
-0.000140165
-2.05775e-05
-4.65284e-05
-9.49251e-05
-3.86012e-05
-0.000118592
-2.55747e-07
-9.75339e-05
-0.000229892
0.000112174
0.000553315
0.000121755
0.000275558
0.00024697
0.00011822
0.000105949
3.59839e-05
-0.000108717
-9.40495e-05
-9.03288e-05
-6.65279e-05
-2.95479e-05
-1.30286e-05
8.28543e-06
8.76993e-06
2.56356e-05
2.90257e-05
5.15029e-05
6.07246e-05
8.22191e-05
9.28413e-05
0.000108508
0.000116313
0.000122257
0.000123042
0.000127489
0.000141255
0.000154552
0.000129597
0.000112863
0.000372696
0.000232881
0.000385947
0.000633603
0.00045162
2.41703e-05
0.00135684
8.98649e-05
8.44089e-05
-0.00026569
-6.90757e-06
-0.000176471
-2.06707e-05
7.34042e-05
5.06661e-06
8.98909e-05
0.000106697
9.78477e-05
0.000107704
9.47473e-05
9.0868e-05
7.5179e-05
6.86652e-05
5.99335e-05
6.04825e-05
5.25028e-05
5.40864e-05
3.62465e-05
3.11168e-05
-1.32026e-06
-2.48882e-05
-7.45925e-05
-0.000119438
-0.000157364
-0.000190707
-0.000180042
-0.000167407
-0.000118824
-0.000183449
-0.000182624
-0.00020113
-0.000252351
-0.000247489
-0.000331348
-0.000305753
-0.000404415
-0.000585923
-7.35044e-05
-6.91896e-05
0.000256358
0.000226521
0.000154907
0.000175258
3.68122e-05
-4.06727e-05
-3.65196e-05
-9.55867e-05
-9.31543e-05
-5.40185e-05
-3.69543e-05
-6.87382e-06
-5.50888e-06
7.60757e-06
2.47537e-06
1.06015e-05
8.00384e-06
1.48889e-05
1.19749e-05
1.60383e-05
1.00934e-05
9.39258e-06
1.86367e-06
-9.89847e-06
-2.25777e-05
-2.08038e-05
-6.59871e-05
-0.00018324
-0.000262631
0.000161748
-7.81629e-05
2.99633e-05
0.000428783
-0.000416604
-0.00105305
0.000701706
0.000119879
0.000810066
7.25733e-05
-0.000214736
-4.27634e-05
-4.2429e-05
-5.23808e-06
0.000112911
6.38919e-05
7.03459e-05
7.78506e-05
8.92421e-05
7.98062e-05
8.94282e-05
6.09428e-05
6.79293e-05
4.12364e-05
5.30127e-05
2.91939e-05
4.26919e-05
1.51182e-05
2.95745e-05
-4.16867e-06
8.56948e-06
-3.34707e-05
-3.02782e-05
-7.12768e-05
-6.52375e-05
-6.65367e-05
-1.75447e-05
-3.27577e-05
-8.54463e-05
-9.77648e-06
-6.30184e-06
-6.31012e-05
-6.93475e-07
-7.47381e-05
5.36431e-05
-4.8623e-05
-7.17571e-05
5.66025e-05
0.000218722
0.000243036
0.000185255
0.000172771
5.27603e-05
6.33106e-05
5.65377e-06
-0.000101853
-8.33661e-05
-7.55145e-05
-4.625e-05
-2.39079e-05
-1.74368e-06
4.79747e-06
1.7208e-05
2.00975e-05
3.41993e-05
4.32133e-05
6.06864e-05
7.23301e-05
8.5646e-05
9.62524e-05
0.000105592
0.000111942
0.000115896
0.000120996
0.000132479
0.00013441
0.000114955
8.50973e-05
0.000294502
0.000173311
0.000296427
0.000541578
0.000367369
1.84007e-05
0.00118727
0.000103975
0.000162984
-0.000114624
-8.7179e-05
-0.000121239
1.47232e-05
6.48656e-05
-7.55472e-06
7.41998e-05
6.79932e-05
8.00221e-05
7.41916e-05
9.10996e-05
7.16596e-05
7.68689e-05
4.87756e-05
5.65712e-05
3.35639e-05
4.70585e-05
2.46182e-05
3.56258e-05
8.79311e-06
1.02202e-05
-2.61768e-05
-3.9214e-05
-8.89414e-05
-0.000104697
-0.000151527
-0.000141774
-0.000153214
-0.000106434
-0.000159604
-0.00016692
-0.000190924
-0.000222417
-0.000227967
-0.000290053
-0.000273249
-0.000344513
-0.000447874
-0.000125602
0.000235632
0.000175746
0.000160721
9.95303e-05
0.000117706
1.09605e-05
-5.10698e-05
-3.04855e-05
-8.71255e-05
-5.91406e-05
-4.51227e-05
-1.34032e-05
-8.45055e-06
8.82953e-06
4.09206e-06
1.41288e-05
8.31848e-06
1.75517e-05
1.24806e-05
1.91151e-05
1.29891e-05
1.55963e-05
9.28226e-06
8.13029e-06
-2.52601e-06
-1.63017e-05
-2.25788e-05
-7.66934e-05
-0.000182537
-0.000281868
0.000121454
-0.000113153
3.85162e-05
0.000362926
-0.000422429
-0.00107912
0.000714053
4.01205e-05
0.000697271
-7.96665e-05
-0.000109451
-1.13775e-05
-3.4187e-05
-5.8794e-06
9.94831e-05
3.63691e-05
5.0006e-05
5.06992e-05
6.28168e-05
6.90112e-05
6.85351e-05
5.92376e-05
4.80666e-05
3.8126e-05
3.13033e-05
2.61476e-05
1.94568e-05
1.66818e-05
6.83801e-06
6.45794e-06
-7.99273e-06
-6.55042e-06
-3.1446e-05
-2.62985e-05
-5.75161e-05
-2.66927e-05
-2.84564e-05
-5.79268e-06
-6.06825e-05
4.13812e-06
1.02971e-05
-2.6147e-05
1.61372e-05
-3.15559e-05
8.08897e-05
-1.24747e-05
2.44395e-06
2.69385e-05
9.71164e-05
0.00015649
0.000116823
0.000115201
2.62998e-05
3.4774e-05
-2.2696e-06
-8.51271e-05
-5.7846e-05
-5.03399e-05
-2.88088e-05
-1.12333e-05
2.85481e-06
9.66006e-06
1.67109e-05
2.08431e-05
3.04781e-05
3.82372e-05
5.27601e-05
6.29236e-05
7.45104e-05
8.30669e-05
9.22335e-05
9.92827e-05
0.000104057
0.00011216
0.000119658
0.000121548
9.55984e-05
7.37194e-05
0.000218089
0.000113822
0.000204249
0.000425827
0.0002926
1.01725e-05
0.000990822
8.573e-05
0.000133257
-6.58128e-06
-3.22489e-05
-8.41934e-05
2.75902e-05
5.15768e-05
-8.54435e-06
5.72781e-05
5.60771e-05
4.7124e-05
6.43678e-05
5.86424e-05
7.12565e-05
4.74509e-05
5.12814e-05
2.66726e-05
3.61674e-05
1.59724e-05
2.86935e-05
8.08574e-06
1.88703e-05
-6.00243e-06
-3.53426e-06
-3.51902e-05
-4.78285e-05
-8.02129e-05
-0.000100894
-0.000113952
-0.000118363
-0.000100966
-0.000133182
-0.00015577
-0.000173118
-0.000199749
-0.000202841
-0.000255108
-0.000238049
-0.000293546
-0.000356291
-0.000148715
0.000144808
8.39409e-05
0.000101593
6.27083e-05
8.04225e-05
-1.52897e-06
-3.80505e-05
-2.374e-05
-5.28866e-05
-4.60157e-05
-2.141e-05
-1.18523e-05
5.02426e-06
4.95261e-06
1.34462e-05
9.52463e-06
1.60554e-05
1.21868e-05
1.84543e-05
1.3589e-05
1.68036e-05
1.19142e-05
1.23735e-05
9.06431e-06
1.76848e-06
-7.41571e-06
-2.2505e-05
-6.01705e-05
-0.000165677
-0.000238474
6.32316e-05
-7.47331e-05
9.19862e-06
0.000334176
-0.000401416
-0.00106644
0.000676758
-3.72025e-05
0.000481887
4.65171e-06
-5.68303e-05
2.52214e-05
-2.81869e-05
7.9564e-06
8.47291e-05
3.55147e-05
2.87496e-05
3.79514e-05
3.66651e-05
5.49856e-05
4.41791e-05
5.0371e-05
2.72268e-05
3.35027e-05
1.42206e-05
2.21809e-05
7.04262e-06
1.26919e-05
1.19665e-06
3.46089e-06
-4.88514e-06
-5.21466e-06
-1.58026e-05
-1.66181e-05
-3.17568e-05
-1.68361e-05
-1.55679e-05
-1.28552e-06
-3.67126e-05
6.05768e-06
2.06718e-05
-4.16057e-06
3.5717e-05
-8.0516e-06
9.96637e-05
7.68331e-06
3.62783e-05
2.21691e-05
7.92556e-05
9.92429e-05
7.21644e-05
7.87409e-05
1.35097e-05
2.60855e-05
-5.16092e-06
-5.95115e-05
-4.52058e-05
-3.28813e-05
-2.21602e-05
-2.19014e-06
1.92983e-06
1.3739e-05
1.21473e-05
2.19825e-05
2.23328e-05
3.46925e-05
3.99083e-05
5.48499e-05
6.0456e-05
7.07536e-05
7.77177e-05
8.48883e-05
9.18772e-05
9.85062e-05
0.000110406
0.000106176
9.15132e-05
6.67647e-05
0.000162018
6.46912e-05
0.000121623
0.000310194
0.000211315
-9.62636e-07
0.000793367
5.21909e-05
6.04527e-05
-1.02297e-06
1.15294e-05
-5.52286e-05
3.73109e-05
4.38173e-05
-6.54303e-06
4.98989e-05
3.56517e-05
3.81324e-05
3.66188e-05
4.94047e-05
4.15863e-05
4.12854e-05
2.63293e-05
2.6368e-05
1.36011e-05
1.93065e-05
7.03671e-06
1.56314e-05
1.72518e-06
7.9947e-06
-9.62727e-06
-1.18087e-05
-3.66378e-05
-4.6532e-05
-7.43993e-05
-7.8237e-05
-9.39854e-05
-8.6241e-05
-0.000118403
-0.000135389
-0.000159499
-0.000174524
-0.000182064
-0.000217154
-0.000207391
-0.000245088
-0.000292489
-0.000153087
6.76186e-05
4.47561e-05
7.00516e-05
4.58114e-05
5.72052e-05
-4.90512e-06
-3.13956e-05
-1.96646e-05
-4.59834e-05
-3.35006e-05
-1.88859e-05
-5.87783e-06
3.36776e-06
8.04568e-06
1.04982e-05
1.20191e-05
1.25313e-05
1.41453e-05
1.44456e-05
1.53238e-05
1.34258e-05
1.33893e-05
1.18084e-05
1.08766e-05
6.69629e-06
-2.28611e-06
-8.9699e-06
-4.47323e-05
-0.000109503
-0.000181675
4.30254e-05
-6.69061e-05
2.16307e-05
0.000281082
-0.000360945
-0.00102205
0.000689957
-9.3954e-05
0.000316533
1.59975e-05
-3.38282e-05
3.09188e-05
-2.50602e-05
7.5201e-06
7.40227e-05
2.2178e-05
2.62639e-05
1.71332e-05
3.04656e-05
2.37806e-05
3.92461e-05
1.8965e-05
3.02321e-05
8.71277e-06
2.15802e-05
3.08166e-06
1.51081e-05
-3.22818e-07
8.73432e-06
-3.56862e-06
2.71056e-06
-7.15244e-06
-4.48681e-06
-1.32559e-05
-1.42148e-05
-1.33468e-05
-4.23519e-06
-5.1314e-06
-1.8356e-05
2.12013e-06
2.33797e-05
9.22819e-06
5.13635e-05
1.36616e-05
0.000104187
1.95078e-05
5.04093e-05
1.95228e-05
4.60587e-05
6.93288e-05
5.38128e-05
5.60284e-05
7.95033e-06
1.57313e-05
-7.68024e-06
-5.48897e-05
-3.54407e-05
-3.32364e-05
-1.4836e-05
-7.30268e-06
6.49381e-06
6.42599e-06
1.51324e-05
1.32882e-05
2.23773e-05
2.36899e-05
3.50147e-05
4.14624e-05
5.20636e-05
5.75869e-05
6.5686e-05
7.2359e-05
7.80012e-05
8.92817e-05
9.61894e-05
0.000102068
8.42519e-05
7.78874e-05
0.000115879
4.36539e-05
6.33092e-05
0.000205284
0.000133542
-1.19232e-05
0.000629421
1.77695e-05
7.97547e-06
-5.43115e-06
1.23247e-05
-4.91991e-05
3.20489e-05
3.30495e-05
-9.19635e-07
4.03934e-05
3.30389e-05
2.24617e-05
2.81068e-05
2.75351e-05
2.80669e-05
2.24093e-05
1.89515e-05
1.319e-05
1.26595e-05
7.19143e-06
1.06574e-05
3.90298e-06
9.63098e-06
-2.0062e-07
3.76579e-06
-1.21987e-05
-1.4947e-05
-3.6655e-05
-4.40778e-05
-6.2091e-05
-6.63524e-05
-8.05499e-05
-9.79237e-05
-0.000121952
-0.000139
-0.000156986
-0.000158073
-0.000185271
-0.000173162
-0.000205758
-0.000245597
-0.000151985
3.67602e-05
3.15852e-05
5.3493e-05
3.41092e-05
4.02009e-05
-6.15024e-06
-3.12481e-05
-1.81617e-05
-4.26189e-05
-2.96323e-05
-2.07776e-05
-3.98532e-06
-2.41546e-07
8.78422e-06
7.27624e-06
1.22372e-05
1.04141e-05
1.38148e-05
1.32365e-05
1.51448e-05
1.38267e-05
1.43345e-05
1.37482e-05
1.38769e-05
1.12995e-05
7.06069e-06
1.79449e-06
-1.71062e-05
-6.22193e-05
-0.000105203
2.8106e-05
-4.16137e-05
1.53252e-05
0.000212041
-0.00036775
-0.000918715
0.000648924
-0.000128017
0.000208511
9.51289e-06
-3.17832e-05
2.44888e-05
-2.38605e-05
1.4333e-05
6.20606e-05
2.59353e-05
1.48469e-05
1.74758e-05
8.52964e-06
2.16194e-05
9.68614e-06
2.17566e-05
5.11411e-06
1.8022e-05
1.73465e-06
1.47586e-05
9.9264e-08
1.10931e-05
-1.38874e-06
6.29351e-06
-3.40984e-06
7.85912e-07
-6.6637e-06
-5.42607e-06
-1.19617e-05
-7.09302e-06
-6.15079e-06
-4.12719e-06
-1.4641e-05
2.4526e-06
1.46793e-05
1.94424e-05
5.08064e-05
3.88692e-05
0.000101961
2.68801e-05
4.739e-05
1.78215e-05
3.21439e-05
5.60502e-05
4.1143e-05
4.14904e-05
6.49983e-06
7.03541e-06
-1.04389e-05
-4.63553e-05
-3.67182e-05
-2.87064e-05
-1.81767e-05
-4.16343e-06
1.04209e-06
8.67985e-06
8.78668e-06
1.47139e-05
1.50668e-05
2.26725e-05
2.58985e-05
3.62368e-05
4.26667e-05
5.01161e-05
5.59084e-05
6.16388e-05
6.90802e-05
7.7249e-05
8.98163e-05
9.17379e-05
8.79832e-05
8.0701e-05
9.81112e-05
3.4718e-05
4.24462e-05
0.000119797
7.13527e-05
-3.00426e-05
0.000473867
-1.3528e-05
-2.17642e-05
-7.75857e-06
6.47787e-06
-4.26705e-05
2.8224e-05
2.8813e-05
1.56511e-06
3.72871e-05
2.26792e-05
1.94644e-05
1.51256e-05
1.69542e-05
1.41394e-05
1.23706e-05
1.06987e-05
8.56042e-06
7.1264e-06
7.07707e-06
4.30835e-06
7.70231e-06
2.41283e-06
7.26473e-06
-1.84142e-06
-1.19137e-07
-1.49147e-05
-1.88129e-05
-3.64611e-05
-4.12052e-05
-5.74965e-05
-6.54395e-05
-8.86093e-05
-0.000102689
-0.000125534
-0.000136592
-0.000141885
-0.00015213
-0.000144695
-0.000164497
-0.000210056
-0.000146105
2.85533e-05
2.58639e-05
4.34317e-05
2.95085e-05
2.82064e-05
-9.38219e-06
-2.62096e-05
-2.34191e-05
-3.59456e-05
-3.17697e-05
-1.38927e-05
-8.54935e-06
4.23834e-06
3.41753e-06
1.07112e-05
8.17246e-06
1.33192e-05
1.16061e-05
1.56955e-05
1.52904e-05
1.69084e-05
1.65703e-05
1.73424e-05
1.80628e-05
1.6944e-05
1.60597e-05
1.26799e-05
5.49487e-06
-2.48066e-05
-4.09772e-05
1.52329e-05
-2.07412e-05
8.42144e-06
0.000110654
-0.000303842
-0.000902473
0.000603369
-0.000131475
0.000144439
5.23593e-06
-2.79413e-05
1.79942e-05
-2.0493e-05
1.18413e-05
5.56404e-05
1.73873e-05
1.65639e-05
4.40662e-06
1.01044e-05
9.59535e-07
1.24421e-05
6.60781e-07
1.29869e-05
-7.08167e-09
1.24569e-05
-6.5226e-07
1.13446e-05
-5.68937e-07
8.63553e-06
-1.84422e-06
3.7165e-06
-4.73404e-06
-1.86306e-06
-8.9186e-06
-7.52235e-06
-1.07101e-05
-6.05879e-06
-1.00058e-05
-1.10181e-05
-5.28723e-06
1.02269e-05
1.39376e-05
5.37218e-05
4.30572e-05
0.000114244
3.01609e-05
4.35518e-05
1.7148e-05
2.91947e-05
4.68365e-05
3.56708e-05
3.20241e-05
2.53612e-06
3.9911e-06
-1.4419e-05
-4.24229e-05
-3.20591e-05
-2.51636e-05
-1.28589e-05
-3.96229e-06
3.60533e-06
6.36814e-06
1.07555e-05
1.14194e-05
1.64051e-05
1.82618e-05
2.53455e-05
2.9925e-05
3.9723e-05
4.36443e-05
4.96397e-05
5.43437e-05
5.98679e-05
7.03488e-05
7.86367e-05
8.74471e-05
8.26066e-05
8.66419e-05
8.08084e-05
4.56892e-05
3.41957e-05
7.85911e-05
2.29668e-05
-3.90609e-05
0.000335344
-3.37492e-05
-3.50026e-05
-8.11893e-06
2.43373e-06
-3.87815e-05
2.19766e-05
2.38911e-05
4.0255e-06
3.11438e-05
2.17915e-05
1.2169e-05
1.05978e-05
7.80413e-06
6.41303e-06
6.70458e-06
4.96921e-06
6.04932e-06
3.64768e-06
4.42473e-06
4.41471e-06
3.15109e-06
5.70717e-06
1.18495e-06
4.05306e-06
-5.0381e-06
-5.62189e-06
-1.93491e-05
-2.30842e-05
-3.76173e-05
-4.37064e-05
-6.08143e-05
-7.37017e-05
-9.21925e-05
-0.000107803
-0.000122636
-0.000124313
-0.000127978
-0.0001165
-0.000129172
-0.000177167
-0.000136692
2.21168e-05
2.21015e-05
3.71911e-05
2.3367e-05
2.15687e-05
-9.78863e-06
-2.62461e-05
-1.67407e-05
-3.31755e-05
-1.94771e-05
-1.33841e-05
-1.47357e-07
1.15835e-06
9.18485e-06
7.31445e-06
1.29515e-05
1.12271e-05
1.58656e-05
1.53209e-05
1.95492e-05
1.89432e-05
2.04953e-05
2.08718e-05
2.18045e-05
2.30114e-05
2.14541e-05
2.28301e-05
1.60695e-05
4.75773e-06
-1.22489e-05
1.49898e-05
-1.72451e-05
1.11164e-06
4.33384e-05
-0.000289977
-0.000735589
0.000496377
-0.000129763
0.000114426
3.25106e-06
-2.54383e-05
1.27074e-05
-1.72246e-05
1.37345e-05
4.78781e-05
2.02695e-05
7.59101e-06
7.59994e-06
-2.56312e-06
5.07327e-06
-2.9947e-06
7.69684e-06
-2.28815e-06
8.69442e-06
-2.55354e-06
8.67822e-06
-1.31484e-06
8.83341e-06
-1.24005e-06
5.68626e-06
-3.83703e-06
-1.40411e-07
-8.10348e-06
-6.03857e-06
-1.27897e-05
-9.53455e-06
-1.33876e-05
-1.04078e-05
-1.6417e-05
-6.53807e-06
-1.94908e-06
1.30723e-05
3.74005e-05
5.37498e-05
0.000101154
5.14271e-05
3.11007e-05
9.03432e-06
2.43007e-05
4.17244e-05
2.95319e-05
2.58528e-05
1.66417e-06
1.02699e-06
-1.0995e-05
-3.53e-05
-2.22433e-05
-1.54646e-05
-6.84758e-06
1.0642e-06
5.46254e-06
9.27817e-06
1.06479e-05
1.37902e-05
1.51833e-05
1.96951e-05
2.28418e-05
2.90575e-05
3.54536e-05
4.04131e-05
4.42035e-05
4.76988e-05
5.30838e-05
6.03997e-05
7.04871e-05
7.60459e-05
7.8253e-05
7.85693e-05
7.38199e-05
4.99876e-05
4.03686e-05
5.74253e-05
-2.00392e-06
-2.24191e-05
0.000212375
-4.001e-05
-4.31748e-05
-7.29773e-06
-4.8961e-07
-3.25921e-05
1.86175e-05
2.15982e-05
5.22026e-06
2.69617e-05
1.70826e-05
8.91947e-06
5.94508e-06
2.77863e-06
3.49966e-06
1.35243e-06
4.71356e-06
-1.53735e-06
3.47465e-06
1.6355e-06
2.89384e-06
2.40837e-06
2.07646e-06
3.20749e-06
-9.60935e-07
-1.18901e-06
-9.42786e-06
-1.31467e-05
-2.30185e-05
-2.93652e-05
-4.02472e-05
-5.14082e-05
-6.52496e-05
-7.93168e-05
-9.41929e-05
-0.000107509
-0.000110397
-0.000107602
-9.72829e-05
-9.73755e-05
-0.000146579
-0.0001213
1.97604e-05
1.93707e-05
3.20747e-05
2.09166e-05
1.7651e-05
-1.09362e-05
-1.92417e-05
-1.28135e-05
-1.87864e-05
-1.41e-05
-2.1055e-06
4.55585e-07
8.60852e-06
7.53433e-06
1.29065e-05
1.12576e-05
1.58192e-05
1.50746e-05
1.915e-05
1.98501e-05
2.24731e-05
2.22272e-05
2.32514e-05
2.4749e-05
2.50129e-05
2.64634e-05
2.42701e-05
2.48104e-05
1.18933e-05
7.82484e-06
3.60906e-06
-6.13136e-06
-1.48777e-05
5.42855e-06
-0.000237281
-0.000544308
0.000343425
-0.000107687
9.23382e-05
2.03621e-06
-2.14678e-05
9.28261e-06
-1.47752e-05
1.18336e-05
4.23396e-05
1.33237e-05
9.26031e-06
-3.47772e-07
1.26322e-06
-4.56669e-06
2.78722e-06
-2.57208e-06
1.15561e-06
-4.04253e-06
4.74309e-06
-5.44187e-06
6.63273e-06
-1.36565e-06
6.66781e-06
-1.85662e-06
1.9693e-06
-6.87231e-06
-4.78014e-06
-1.26567e-05
-1.03956e-05
-1.65671e-05
-1.25224e-05
-1.80964e-05
-1.41745e-05
-1.51845e-05
-4.24657e-06
2.19124e-06
2.81693e-05
4.39622e-05
9.43228e-05
5.88257e-05
3.22621e-05
1.49591e-05
2.29878e-05
3.64284e-05
2.65185e-05
2.18163e-05
-1.94941e-06
3.35921e-06
-9.91987e-06
-2.6605e-05
-1.30416e-05
-7.11296e-06
-8.96078e-08
5.78291e-06
8.72976e-06
1.13285e-05
1.26224e-05
1.4411e-05
1.63499e-05
1.90278e-05
2.25001e-05
2.64539e-05
3.21378e-05
3.60992e-05
3.89239e-05
4.11255e-05
4.47224e-05
5.08572e-05
5.85825e-05
6.40054e-05
6.65225e-05
6.79394e-05
6.27198e-05
5.16736e-05
4.13681e-05
5.19946e-05
-9.77727e-06
-1.1382e-07
0.000118828
-3.21165e-05
-4.97597e-05
-6.70856e-06
-1.77583e-06
-2.90353e-05
1.48171e-05
1.82806e-05
3.64048e-06
2.46579e-05
1.31872e-05
7.46247e-06
1.76151e-06
2.49561e-06
-3.23024e-07
-1.66127e-07
-4.33198e-06
-5.91877e-07
-9.89855e-06
1.16884e-05
-6.65908e-06
2.93099e-06
1.27847e-06
2.07237e-06
-9.98371e-08
-3.39793e-06
-8.3834e-06
-1.38956e-05
-2.01996e-05
-2.69361e-05
-3.49675e-05
-4.52694e-05
-5.57271e-05
-6.86381e-05
-7.99702e-05
-9.31926e-05
-9.60549e-05
-9.27413e-05
-8.23401e-05
-7.53051e-05
-0.000118963
-0.00010477
1.63729e-05
1.63251e-05
2.84597e-05
1.62476e-05
1.64982e-05
-1.01771e-05
-1.67437e-05
-3.65635e-06
-1.40069e-05
-3.74454e-06
2.17955e-07
7.48405e-06
8.21197e-06
1.23403e-05
1.1537e-05
1.48023e-05
1.44356e-05
1.76097e-05
1.80194e-05
2.1227e-05
2.19411e-05
2.289e-05
2.32356e-05
2.4151e-05
2.59141e-05
2.49339e-05
2.58049e-05
2.17008e-05
1.77877e-05
7.28021e-06
4.639e-06
-1.05522e-05
-1.3582e-05
-1.19567e-05
-0.000166411
-0.000351142
0.000232285
-7.55875e-05
6.22781e-05
1.69179e-06
-1.88065e-05
6.4218e-06
-1.22752e-05
1.05075e-05
3.75839e-05
1.36214e-05
5.16428e-06
9.98213e-07
-2.96624e-06
-7.423e-07
-4.2619e-06
-2.31507e-06
-7.73287e-06
-1.24525e-05
1.67321e-05
-7.03937e-06
-9.12716e-07
-5.09968e-06
-8.61362e-07
3.62205e-06
-2.64715e-06
-3.0682e-06
-1.01793e-05
-1.04297e-05
-1.59684e-05
-1.49614e-05
-1.83198e-05
-1.68889e-05
-1.86393e-05
-1.47025e-05
-1.06437e-05
-1.07215e-06
1.5021e-05
3.59227e-05
7.20339e-05
6.89639e-05
2.30976e-05
1.64734e-05
1.89407e-05
3.32082e-05
2.20794e-05
1.8908e-05
-2.69358e-06
3.13113e-06
-5.46468e-06
-2.15248e-05
-6.26541e-06
-1.64352e-06
4.27786e-06
7.64377e-06
1.11199e-05
1.17012e-05
1.36919e-05
1.40561e-05
1.62284e-05
1.76781e-05
2.06555e-05
2.33161e-05
2.74102e-05
3.09405e-05
3.24404e-05
3.37836e-05
3.53806e-05
4.01374e-05
4.52638e-05
4.9875e-05
5.21242e-05
5.33182e-05
5.03033e-05
4.52794e-05
4.02934e-05
4.61679e-05
-6.45749e-06
2.31549e-05
6.35462e-05
-1.93658e-05
-5.52791e-05
-5.60974e-06
-2.85166e-06
-2.44339e-05
1.17229e-05
1.63986e-05
4.68034e-06
2.07564e-05
1.15373e-05
4.13399e-06
2.15145e-06
-9.65801e-07
-4.44977e-07
-8.95534e-06
-1.47893e-05
1.44025e-05
-5.59081e-07
6.68676e-06
-1.6996e-05
-3.4666e-06
-6.36366e-06
-2.03595e-06
4.11953e-07
-4.29564e-06
-8.26017e-06
-1.41512e-05
-1.87716e-05
-2.44451e-05
-3.07555e-05
-3.87311e-05
-4.70793e-05
-5.74518e-05
-6.66725e-05
-7.81906e-05
-8.19977e-05
-7.99885e-05
-7.18141e-05
-6.13661e-05
-9.90671e-05
-9.14238e-05
1.51913e-05
1.42095e-05
2.47899e-05
1.43884e-05
1.49522e-05
-1.0919e-05
-1.24372e-05
-1.88422e-06
-7.14866e-06
-2.22393e-06
4.26577e-06
7.08977e-06
1.03402e-05
1.11003e-05
1.27789e-05
1.31962e-05
1.48287e-05
1.56835e-05
1.74294e-05
1.87831e-05
2.04888e-05
2.06008e-05
2.07337e-05
2.17565e-05
2.2496e-05
2.27615e-05
2.12058e-05
1.95116e-05
1.37352e-05
7.94607e-06
-9.97371e-07
-7.37673e-06
-1.60084e-05
-6.66495e-06
-0.000117265
-0.000167886
0.000135204
-5.2995e-05
4.44559e-05
1.32517e-06
-1.59886e-05
4.2382e-06
-1.11159e-05
9.38687e-06
3.18354e-05
1.14704e-05
4.12801e-06
-1.83241e-07
-2.26102e-06
-2.18072e-06
-7.17546e-06
-1.36259e-05
7.82217e-06
-2.32005e-06
1.95197e-05
-1.42883e-05
-2.43817e-07
-2.31911e-05
-5.77696e-06
-7.97642e-06
-3.41098e-06
-6.26732e-06
-9.12964e-06
-1.34724e-05
-1.527e-05
-1.7631e-05
-1.78419e-05
-1.88231e-05
-1.75038e-05
-1.62857e-05
-1.1234e-05
-5.09238e-06
7.89889e-06
2.5579e-05
5.15249e-05
6.40296e-05
1.89525e-05
2.05659e-05
1.77999e-05
2.90848e-05
1.98684e-05
1.63567e-05
-5.46692e-06
4.46014e-06
-5.66308e-06
-1.84841e-05
-3.99078e-06
7.43254e-08
4.59555e-06
8.35508e-06
9.93372e-06
1.17074e-05
1.20898e-05
1.32769e-05
1.40059e-05
1.56048e-05
1.71865e-05
1.93264e-05
2.17457e-05
2.45853e-05
2.54474e-05
2.54717e-05
2.6239e-05
2.86121e-05
3.24459e-05
3.49949e-05
3.74646e-05
3.74062e-05
3.71879e-05
3.45341e-05
3.53678e-05
3.56566e-05
1.22683e-06
3.57258e-05
3.30151e-05
-7.98949e-06
-5.58359e-05
-5.12465e-06
-3.33257e-06
-2.20192e-05
9.147e-06
1.29945e-05
4.83881e-06
1.76845e-05
9.57863e-06
3.01687e-06
8.78228e-07
-1.78877e-06
-7.1447e-06
-1.58142e-06
-3.26685e-06
1.97655e-05
8.26063e-07
3.16453e-06
-2.14364e-05
-9.86536e-06
-1.87844e-05
-1.35521e-05
-7.47221e-06
-5.92744e-06
-9.34447e-06
-1.33419e-05
-1.77197e-05
-2.14767e-05
-2.66405e-05
-3.19542e-05
-3.87553e-05
-4.63663e-05
-5.39011e-05
-6.34316e-05
-6.78337e-05
-6.81323e-05
-6.22859e-05
-5.41947e-05
-8.46602e-05
-8.29227e-05
1.29246e-05
1.19293e-05
2.19537e-05
1.07289e-05
1.38954e-05
-1.05591e-05
-1.26807e-05
1.07701e-06
-7.6072e-06
-6.52805e-07
3.26909e-06
6.70993e-06
8.94525e-06
1.01811e-05
1.10323e-05
1.17532e-05
1.25617e-05
1.34975e-05
1.44653e-05
1.55754e-05
1.68713e-05
1.68384e-05
1.66426e-05
1.71822e-05
1.80634e-05
1.78265e-05
1.66543e-05
1.42702e-05
1.03049e-05
4.33743e-06
-2.221e-06
-8.14384e-06
-1.22314e-05
-8.51936e-06
-7.00437e-05
-6.65453e-05
7.91194e-05
-2.44427e-05
2.72691e-05
1.189e-06
-1.41018e-05
2.25593e-06
-9.9041e-06
8.34951e-06
2.72809e-05
9.92521e-06
3.74118e-06
-7.32698e-07
-2.05107e-06
-3.72064e-06
-8.18342e-06
-2.53814e-06
1.02695e-05
1.12341e-05
3.39786e-06
-5.28838e-06
-6.50227e-06
-1.81047e-05
-2.49012e-05
-2.01457e-05
-9.02569e-06
-8.02703e-06
-1.03385e-05
-1.31376e-05
-1.5616e-05
-1.70225e-05
-1.78351e-05
-1.77706e-05
-1.69476e-05
-1.51878e-05
-1.1313e-05
-6.21919e-06
3.44634e-06
1.7231e-05
3.52309e-05
5.29173e-05
1.04105e-05
2.34665e-05
1.45574e-05
2.63228e-05
1.63444e-05
1.41312e-05
-5.65363e-06
3.00859e-06
-4.09571e-06
-1.73482e-05
-3.57675e-06
2.12487e-07
3.53902e-06
6.84929e-06
8.66777e-06
9.71789e-06
1.0316e-05
1.07896e-05
1.14393e-05
1.22449e-05
1.33274e-05
1.46279e-05
1.59282e-05
1.80161e-05
1.826e-05
1.79055e-05
1.74815e-05
1.8735e-05
2.05788e-05
2.23463e-05
2.36209e-05
2.36467e-05
2.43435e-05
2.32417e-05
2.68378e-05
2.32711e-05
7.03335e-06
3.35672e-05
2.17195e-05
-1.22187e-06
-5.22061e-05
-4.26655e-06
-3.92292e-06
-1.9003e-05
6.70757e-06
1.12595e-05
4.48514e-06
1.58048e-05
7.18515e-06
2.63369e-06
-4.42403e-07
-3.27427e-06
-6.6871e-06
-1.40884e-06
1.07868e-05
8.46122e-06
1.98184e-06
-1.40262e-06
-7.41029e-06
-2.33562e-05
-3.15358e-05
-1.39069e-05
-1.35208e-05
-9.08042e-06
-9.29055e-06
-1.22888e-05
-1.5406e-05
-1.84459e-05
-2.19066e-05
-2.56144e-05
-3.05856e-05
-3.59095e-05
-4.20037e-05
-4.93162e-05
-5.43384e-05
-5.62491e-05
-5.26392e-05
-4.97249e-05
-7.4578e-05
-7.79751e-05
1.20923e-05
1.04939e-05
1.89571e-05
9.41865e-06
1.18591e-05
-1.12385e-05
-1.10124e-05
-5.70637e-07
-5.99136e-06
-1.94273e-06
2.50333e-06
5.27919e-06
7.2681e-06
8.25724e-06
8.83123e-06
9.30037e-06
9.78289e-06
1.03764e-05
1.09897e-05
1.16351e-05
1.25905e-05
1.23956e-05
1.19427e-05
1.21872e-05
1.29497e-05