/*--------------------------------*- C++ -*----------------------------------*\
| =========                 |                                                 |
| \\      /  F ield         | OpenFOAM: The Open Source CFD Toolbox           |
|  \\    /   O peration     | Version:  2312                                  |
|   \\  /    A nd           | Website:  www.openfoam.com                      |
|    \\/     M anipulation  |                                                 |
\*---------------------------------------------------------------------------*/
FoamFile
{
    version     2.0;
    format      ascii;
    arch        "LSB;label=32;scalar=64";
    class       volScalarField;
    location    "100";
    object      magR;
}
// * * * * * * * * * * * * * * * * * * * * * * * * * * * * * * * * * * * * * //

dimensions      [0 2 -2 0 0 0 0];

internalField   nonuniform List<scalar> 
10720
(
0.0173672
0.0204261
0.0243725
0.029716
0.036123
0.0443348
0.0549061
0.0681003
0.0849063
0.106343
0.133811
0.169943
0.218947
0.28621
0.380877
0.519288
0.725933
1.05488
1.57188
2.52242
4.03228
7.62137
13.3143
32.0652
54.8325
62.1678
61.1538
59.3867
58.1838
56.7945
54.6073
51.4962
47.6763
43.2252
38.0175
32.133
24.6229
17.5445
4.00971
0.0146413
0.0124154
0.00998839
0.00790351
0.00597943
0.00439221
0.00347791
0.00386592
0.00517908
0.00746522
0.0109441
0.0160015
0.0232174
0.033386
0.0475323
0.0674185
0.09614
0.139324
0.207381
0.318454
0.511127
0.849264
1.51018
2.74957
5.57744
11.2108
25.4664
47.191
61.7947
67.3034
68.6621
68.7155
68.1299
67.0151
65.428
63.453
60.6574
57.4861
47.2349
0.00332714
0.00332406
0.00329323
0.0032088
0.00307615
0.00291722
0.00272551
0.00250734
0.00228693
0.00206574
0.00185423
0.00167125
0.00150767
0.00143892
0.00156614
0.00203427
0.00336753
0.00675561
0.0146966
0.0366487
0.0918273
0.280148
0.740508
2.29742
5.86888
10.3389
15.0618
19.2984
22.0353
22.3751
20.4297
17.5706
14.8328
12.6087
10.9068
9.58247
8.65605
7.64614
8.45208
0.00328663
0.00322899
0.00313545
0.00299561
0.00279583
0.00254982
0.00231323
0.00206308
0.00179911
0.00154488
0.00131562
0.00111344
0.000935794
0.000780424
0.000647027
0.00053495
0.000440192
0.000360486
0.000290446
0.00022588
0.000160802
9.54775e-05
3.847e-05
9.88188e-06
0.000269876
0.00347386
0.0222618
0.137236
0.385081
0.692302
0.994323
1.25195
1.46068
1.63776
1.79937
1.96397
2.1384
2.5325
3.45787
0.00226506
0.00223709
0.00217782
0.00209084
0.00199798
0.00189415
0.00178631
0.00168702
0.00159947
0.00152895
0.00147475
0.00143604
0.00140925
0.00139854
0.00140447
0.00142421
0.00135873
0.00119199
0.000420713
0.000223496
0.00264267
0.0180505
0.000428134
0.000313843
0.00253225
0.0555757
0.268011
0.878567
2.30473
4.90348
8.39686
11.5623
13.1806
13.0775
11.9904
10.592
9.43876
7.96952
9.05196
0.00228713
0.00229117
0.00228677
0.00224421
0.00215247
0.00200897
0.00184405
0.0016824
0.00150165
0.00130054
0.00109573
0.000904108
0.000734194
0.000588787
0.000471492
0.000380128
0.000311902
0.00026256
0.000228674
0.000206088
0.000191989
0.000184746
0.000183284
0.000186037
0.000190455
0.000192684
0.000194221
0.000127257
0.0016437
0.00760443
0.0189553
0.0398484
0.091209
0.184766
0.314701
0.466198
0.623103
0.730706
1.20599
0.00186098
0.00186428
0.00185503
0.00183843
0.00180719
0.00176088
0.0017032
0.00163185
0.0015503
0.00146021
0.00136373
0.00126416
0.00116387
0.00106172
0.000959146
0.000854982
0.000742626
0.000630868
0.000520102
0.000392608
0.000289045
2.59676e-05
3.557e-05
2.39997e-05
0.00333325
0.0159926
0.0392096
0.0754703
0.00644698
0.0195123
0.182832
1.04455
3.07081
5.9278
8.40839
9.61483
9.85854
9.03519
9.74491
0.00184419
0.00181957
0.00178037
0.00172713
0.00165207
0.00155787
0.00145599
0.00134058
0.00120951
0.00107157
0.000937153
0.000813835
0.000704126
0.00060841
0.000527305
0.000459325
0.000403398
0.000357745
0.000321169
0.000291363
0.000267113
0.000246574
0.000227841
0.000207501
0.00018617
0.000168732
0.000155212
0.000147598
0.000124382
0.000143052
2.51912e-05
3.18748e-05
0.000507271
0.00075279
0.00473168
0.020686
0.0607736
0.142077
0.489439
0.00142174
0.00141688
0.00140441
0.00138304
0.00135167
0.0013095
0.00125828
0.00119887
0.00113313
0.00106456
0.000995539
0.000928831
0.000866735
0.00081113
0.000762996
0.000724326
0.000692936
0.000660842
0.000620696
0.0005688
0.000482166
0.0003677
9.16782e-05
1.56605e-05
6.64669e-06
2.65488e-09
0
0
0.00170825
0.0208855
0.0697077
0.0244694
0.0664765
0.315259
1.8236
4.60116
7.42594
8.87966
10.0228
0.00141907
0.00141019
0.00139058
0.00135585
0.00130462
0.00123952
0.00116868
0.00108833
0.000997009
0.000899375
0.00079971
0.000702324
0.000610043
0.000524625
0.000447927
0.000380846
0.000323686
0.000276165
0.000237763
0.000207221
0.000183385
0.000164747
0.000149703
0.000135561
0.000120823
0.00010697
9.6485e-05
9.00571e-05
8.80964e-05
8.34479e-05
9.3402e-05
1.02108e-06
0.000239188
0.000976382
0.000696035
0.000479546
0.00134662
0.0045458
0.0921477
0.00115478
0.00115788
0.00115629
0.00115046
0.00113836
0.00111944
0.00109431
0.0010624
0.00102428
0.000980977
0.000932939
0.000881242
0.000826976
0.000771004
0.000714297
0.000658024
0.000600574
0.000538359
0.000474922
0.000415773
0.000361832
0.000320525
0.000258279
0.000170888
8.3862e-05
2.94865e-08
5.25129e-06
2.83802e-06
1.11631e-07
0
0
0.004852
0.0357483
0.0234079
0.0849194
0.511377
2.93182
6.636
9.40465
0.00114576
0.00113299
0.00111369
0.0010845
0.00104605
0.00100023
0.000950145
0.000892505
0.000826981
0.000756622
0.000684017
0.000612177
0.000543457
0.000479343
0.000421158
0.000369792
0.00032548
0.00028798
0.000256797
0.000231046
0.00020972
0.000191532
0.000175038
0.000158167
0.000140006
0.000122302
0.000106716
9.36362e-05
8.26967e-05
7.35388e-05
6.54388e-05
5.69586e-05
4.44106e-05
2.03304e-05
1.10587e-06
5.41804e-05
0.00023044
0.00106058
0.0102958
0.000936272
0.000939679
0.000939861
0.000936556
0.000928759
0.000915637
0.000897379
0.000873615
0.000844512
0.000810803
0.000773035
0.000732111
0.000689195
0.000645229
0.000601419
0.000558739
0.000518483
0.000482511
0.000448962
0.000415
0.000379802
0.00034561
0.000317357
0.000281686
0.000239893
0.000178285
0.000111671
5.28409e-05
1.71543e-06
3.46767e-06
1.37869e-07
0
0
0.00367705
0.000139215
0.0528176
0.300086
3.14154
7.47007
0.00092826
0.000917932
0.000903142
0.00088037
0.000851594
0.000818642
0.00078202
0.00073974
0.000692198
0.000641018
0.000587536
0.00053346
0.000480284
0.000429079
0.000380919
0.000336722
0.000297007
0.000262033
0.00023184
0.000206103
0.000184318
0.0001657
0.000149208
0.000133314
0.000117072
0.000101383
8.75348e-05
7.60102e-05
6.65951e-05
5.91799e-05
5.39149e-05
5.06318e-05
4.81714e-05
4.16699e-05
2.75035e-05
1.5053e-05
1.72731e-06
1.21277e-07
0.000356951
0.000772452
0.000777481
0.000780332
0.000780829
0.000778442
0.000772365
0.000762759
0.000749154
0.000731483
0.000710129
0.000685103
0.000656875
0.000625986
0.000592857
0.000558108
0.000522278
0.00048607
0.000448763
0.00040969
0.000370669
0.000333817
0.000300578
0.00027278
0.000250957
0.000229814
0.000209595
0.000180804
0.000147623
0.000104117
6.50481e-05
2.51577e-06
2.08927e-06
0
0
3.48367e-06
0.0116407
0.0106759
0.733694
4.60319
0.000764017
0.000754587
0.000742367
0.000724161
0.00070218
0.000677726
0.00065026
0.000618644
0.000583567
0.000545822
0.000506029
0.00046532
0.000424683
0.000384871
0.00034672
0.000311078
0.000278474
0.000249298
0.000223696
0.000201507
0.000182327
0.00016552
0.000150214
0.000135241
0.000119906
0.000104897
9.12185e-05
7.92217e-05
6.86762e-05
5.93754e-05
5.12733e-05
4.41554e-05
3.79371e-05
3.26097e-05
2.8959e-05
2.5414e-05
1.75875e-05
1.80616e-06
2.74447e-05
0.000642358
0.000647559
0.000651265
0.000653205
0.000653161
0.000650403
0.000644937
0.000636335
0.000624465
0.000609417
0.00059117
0.000569958
0.000546132
0.000520042
0.000492222
0.000463213
0.000433437
0.000403694
0.000374717
0.000346416
0.000318663
0.000291712
0.000266229
0.000242914
0.000220471
0.000198933
0.000178139
0.000159398
0.000141906
0.000125557
9.26549e-05
4.20502e-05
4.1398e-06
3.39653e-07
0
0
0.00520033
0.105711
2.07063
0.000634788
0.000626847
0.000617003
0.000602542
0.000585516
0.000566773
0.000545696
0.000521674
0.000495371
0.000467163
0.000437321
0.000406495
0.000375296
0.00034419
0.00031373
0.000284543
0.000257139
0.000231891
0.000209048
0.000188654
0.000170547
0.000154337
0.000139427
0.000125024
0.000110629
9.66469e-05
8.38796e-05
7.27043e-05
6.30113e-05
5.46339e-05
4.75702e-05
4.19034e-05
3.75223e-05
3.43438e-05
3.2387e-05
3.23363e-05
3.38176e-05
3.30814e-05
1.2149e-06
0.000539405
0.000544481
0.000548662
0.000551594
0.000553167
0.000552872
0.000550607
0.000546012
0.00053894
0.000529368
0.000517167
0.00050243
0.000485329
0.000466038
0.000444857
0.000422104
0.000398143
0.000373401
0.000347654
0.000321251
0.000295213
0.000270486
0.000247682
0.000226669
0.000206273
0.000185436
0.00016493
0.000146612
0.000132547
0.00012186
0.000116722
0.000101439
7.14494e-05
7.03075e-06
6.99778e-07
0
5.14213e-07
0.000784736
0.683727
0.000532747
0.000526074
0.000517989
0.000506314
0.000492892
0.000478202
0.000461708
0.000443163
0.00042313
0.000401745
0.000379126
0.000355657
0.000331662
0.000307392
0.000283247
0.000259681
0.000237091
0.000215858
0.000196232
0.000178341
0.00016214
0.000147377
0.000133622
0.00012033
0.000107114
9.42574e-05
8.23774e-05
7.17955e-05
6.24319e-05
5.4131e-05
4.68482e-05
4.05543e-05
3.51848e-05
3.0864e-05
2.75459e-05
2.66066e-05
2.54911e-05
4.06074e-05
1.63295e-05
0.000456598
0.000461251
0.000465414
0.000468695
0.000471033
0.000472066
0.000471611
0.000469445
0.000465335
0.00045924
0.000450978
0.000440553
0.000428018
0.000413442
0.000397022
0.000379004
0.000359622
0.000339272
0.000318255
0.000296924
0.000275622
0.0002548
0.000234839
0.000215795
0.000197036
0.000177788
0.000158388
0.00014029
0.00012517
0.000113055
0.000105581
0.000100935
9.76094e-05
8.1758e-05
1.16865e-05
1.96631e-07
0
0.00311732
0.215519
0.00045092
0.000445323
0.000438619
0.000429053
0.000418317
0.000406588
0.000393462
0.00037895
0.000363468
0.00034707
0.000329746
0.000311734
0.000293205
0.000274271
0.000255146
0.000236146
0.000217559
0.000199682
0.000182779
0.000166996
0.000152355
0.000138738
0.00012588
0.000113427
0.000101135
8.92123e-05
7.81239e-05
6.81726e-05
5.93451e-05
5.15459e-05
4.47563e-05
3.90243e-05
3.43216e-05
3.07104e-05
2.80817e-05
2.74305e-05
2.66688e-05
3.57326e-05
4.24569e-05
0.000389411
0.000393593
0.000397551
0.000400879
0.000403604
0.000405407
0.000406143
0.000405591
0.00040357
0.000400006
0.000394714
0.000387642
0.000378775
0.000368123
0.000355769
0.000341852
0.000326546
0.000310131
0.000292805
0.000274645
0.000256088
0.000237798
0.000220147
0.00020318
0.000186411
0.000169265
0.000151917
0.000135453
0.000121077
0.00010909
9.93819e-05
9.2642e-05
8.79827e-05
9.40853e-05
8.23558e-05
2.35438e-06
1.70276e-09
0.0013175
0.0844794
0.000384552
0.000379729
0.000374062
0.000366123
0.00035744
0.00034794
0.000337383
0.000325911
0.000313803
0.000301064
0.000287677
0.00027376
0.000259385
0.000244562
0.00022943
0.000214172
0.000198972
0.000184067
0.000169661
0.000155929
0.000142945
0.000130659
0.000118902
0.000107452
9.61929e-05
8.5267e-05
7.50329e-05
6.57498e-05
5.74376e-05
5.0027e-05
4.34973e-05
3.78619e-05
3.30944e-05
2.92831e-05
2.6417e-05
2.53227e-05
2.48734e-05
3.04512e-05
4.59267e-05
0.000334211
0.000337948
0.000341624
0.00034484
0.000347668
0.000349843
0.000351257
0.000351709
0.000351033
0.000349157
0.000345904
0.000341202
0.000334996
0.000327234
0.00031796
0.000307238
0.000295181
0.000281951
0.000267816
0.000252879
0.000237403
0.000221873
0.000206557
0.000191521
0.000176485
0.000161093
0.000145513
0.000130628
0.000117417
0.000106254
9.67664e-05
8.90759e-05
8.25562e-05
8.00311e-05
9.19986e-05
6.26318e-05
5.06371e-08
0.000626317
0.0365036
0.000329981
0.00032572
0.000320846
0.000314201
0.00030711
0.000299356
0.00029081
0.00028166
0.000272106
0.000262134
0.000251705
0.000240868
0.000229651
0.000218032
0.000206034
0.000193781
0.000181386
0.000169012
0.000156814
0.00014494
0.000133479
0.000122431
0.00011171
0.000101207
9.0879e-05
8.08496e-05
7.13914e-05
6.27342e-05
5.49282e-05
4.79387e-05
4.17624e-05
3.64278e-05
3.19478e-05
2.83862e-05
2.57241e-05
2.4611e-05
2.42051e-05
2.82502e-05
4.21433e-05
0.000288334
0.00029169
0.000295081
0.000298127
0.000300933
0.00030329
0.000305079
0.000306149
0.000306364
0.000305637
0.000303831
0.000300844
0.00029663
0.000291118
0.000284291
0.000276166
0.000266797
0.000256287
0.000244873
0.000232569
0.000219574
0.000206311
0.000193043
0.000179845
0.000166521
0.000152828
0.000138923
0.000125517
0.000113457
0.000103131
9.43747e-05
8.6923e-05
8.09507e-05
7.47314e-05
7.59155e-05
0.000100006
2.82116e-06
0.000188624
0.0133179
0.000284543
0.000280713
0.000276479
0.0002709
0.000265044
0.00025869
0.000251739
0.000244414
0.000236822
0.000228959
0.000220777
0.0002123
0.000203514
0.000194363
0.000184852
0.000175023
0.000164934
0.0001547
0.000144433
0.000134246
0.000124214
0.000114375
0.0001047
9.51628e-05
8.57657e-05
7.66163e-05
6.79339e-05
5.9914e-05
5.26223e-05
4.60491e-05
4.01995e-05
3.50985e-05
3.07595e-05
2.72471e-05
2.45609e-05
2.331e-05
2.27511e-05
2.61426e-05
3.79149e-05
0.000249784
0.000252824
0.000255953
0.000258806
0.000261527
0.000263945
0.000265922
0.000267364
0.000268151
0.000268197
0.000267394
0.00026565
0.000262893
0.000259051
0.000254081
0.000247978
0.000240768
0.000232491
0.000223336
0.000213323
0.000202577
0.000191402
0.000180042
0.000168562
0.000156841
0.000144723
0.000132353
0.000120311
0.00010932
9.97622e-05
9.1633e-05
8.46684e-05
7.90915e-05
7.44677e-05
6.71614e-05
9.02202e-05
3.80281e-05
1.91897e-05
0.00349573
0.000246324
0.000242853
0.000239165
0.00023447
0.000229593
0.000224367
0.000218701
0.000212803
0.000206747
0.000200517
0.000194074
0.000187403
0.000180491
0.000173272
0.000165713
0.000157834
0.000149645
0.000141205
0.000132592
0.000123889
0.000115172
0.000106483
9.7822e-05
8.91947e-05
8.0662e-05
7.23347e-05
6.43843e-05
5.69743e-05
5.01821e-05
4.40193e-05
3.85018e-05
3.36638e-05
2.95294e-05
2.6158e-05
2.35481e-05
2.2235e-05
2.15525e-05
2.42284e-05
3.41998e-05
0.000217098
0.000219881
0.000222761
0.000225428
0.000228045
0.000230445
0.000232514
0.000234176
0.000235329
0.000235902
0.000235797
0.000234929
0.000233241
0.000230652
0.000227128
0.000222629
0.000217154
0.000210714
0.000203436
0.000195356
0.000186525
0.000177158
0.000167493
0.000157595
0.000147368
0.00013672
0.000125783
0.00011503
0.00010507
9.62696e-05
8.86892e-05
8.22341e-05
7.67143e-05
7.35146e-05
6.61196e-05
7.2924e-05
7.9193e-05
1.03425e-06
0.000543637
0.000213947
0.000210807
0.000207601
0.000203641
0.000199547
0.000195213
0.000190571
0.000185799
0.000180944
0.00017599
0.000170893
0.000165637
0.000160189
0.000154477
0.000148468
0.000142139
0.000135496
0.000128553
0.000121359
0.000113968
0.000106438
9.88109e-05
9.1106e-05
8.33656e-05
7.56689e-05
6.81255e-05
6.0875e-05
5.40593e-05
4.77597e-05
4.20027e-05
3.68129e-05
3.22292e-05
2.82755e-05
2.50078e-05
2.24323e-05
2.10282e-05
2.02288e-05
2.22898e-05
3.07992e-05
0.000189219
0.000191767
0.000194409
0.000196904
0.000199392
0.000201731
0.000203823
0.000205604
0.000206978
0.000207895
0.000208272
0.000208034
0.000207137
0.0002055
0.000203075
0.000199821
0.000195718
0.000190766
0.000185027
0.000178572
0.000171388
0.000163612
0.000155465
0.000147007
0.000138166
0.000128876
0.000119265
0.000109717
0.000100742
9.26914e-05
8.56454e-05
7.96597e-05
7.43523e-05
7.11579e-05
6.68487e-05
6.2399e-05
9.19166e-05
1.42675e-06
7.51635e-06
0.000186384
0.000183575
0.000180785
0.000177431
0.000173963
0.000170334
0.000166504
0.00016262
0.000158707
0.000154748
0.000150705
0.000146545
0.000142236
0.000137716
0.00013293
0.000127856
0.000122469
0.000116775
0.000110785
0.000104539
9.80711e-05
9.14158e-05
8.46027e-05
7.76936e-05
7.07828e-05
6.39698e-05
5.73799e-05
5.11336e-05
4.53103e-05
3.99494e-05
3.50822e-05
3.07522e-05
2.6987e-05
2.38388e-05
2.13174e-05
1.98421e-05
1.89387e-05
2.04448e-05
2.76383e-05
0.000165353
0.000167666
0.00017008
0.000172405
0.000174744
0.000176998
0.000179057
0.000180881
0.000182388
0.000183532
0.000184241
0.00018446
0.000184133
0.000183198
0.00018161
0.000179324
0.000176312
0.000172558
0.000168085
0.000162976
0.000157182
0.000150782
0.00014397
0.000136805
0.000129226
0.000121187
0.000112799
0.000104376
9.63423e-05
8.9028e-05
8.25286e-05
7.69581e-05
7.20561e-05
6.84406e-05
6.62196e-05
5.91486e-05
8.25762e-05
1.40924e-05
1.12204e-06
0.000162835
0.000160351
0.000157919
0.000155054
0.000152097
0.000149022
0.000145836
0.000142645
0.000139469
0.000136286
0.000133064
0.000129764
0.000126351
0.000122763
0.00011895
0.000114877
0.000110514
0.000105849
0.00010088
9.56178e-05
9.00916e-05
8.43272e-05
7.83484e-05
7.22127e-05
6.60241e-05
5.98968e-05
5.39311e-05
4.82292e-05
4.2867e-05
3.78919e-05
3.33407e-05
2.92596e-05
2.56778e-05
2.26435e-05
2.01701e-05
1.86255e-05
1.7626e-05
1.86685e-05
2.46972e-05
0.000144865
0.000146942
0.000149145
0.000151285
0.000153474
0.000155609
0.000157606
0.000159417
0.000160984
0.000162262
0.00016319
0.000163716
0.000163805
0.000163393
0.000162446
0.000160912
0.00015876
0.000155971
0.000152538
0.000148536
0.000143905
0.000138686
0.00013304
0.00012702
0.000120577
0.000113673
0.000106402
9.90219e-05
9.18805e-05
8.52796e-05
7.93347e-05
7.41556e-05
6.96861e-05
6.59136e-05
6.4155e-05
5.89912e-05
6.74498e-05
4.74416e-05
1.37321e-05
0.000142653
0.00014047
0.000138339
0.000135875
0.000133333
0.000130705
0.000128027
0.000125383
0.000122781
0.000120205
0.000117622
0.00011499
0.000112276
0.000109421
0.000106377
0.000103107
9.95757e-05
9.57587e-05
9.16454e-05
8.72358e-05
8.25352e-05
7.75596e-05
7.23328e-05
6.69178e-05
6.14151e-05
5.59266e-05
5.05437e-05
4.53553e-05
4.0434e-05
3.58307e-05
3.15863e-05
2.77484e-05
2.43485e-05
2.14299e-05
1.90087e-05
1.74056e-05
1.63194e-05
1.69668e-05
2.19673e-05
0.00012723
0.000129083
0.000131078
0.000133038
0.000135062
0.000137065
0.000138963
0.000140727
0.000142299
0.00014364
0.000144703
0.000145444
0.00014583
0.00014581
0.000145343
0.00014439
0.000142913
0.000140891
0.0001383
0.000135206
0.000131549
0.000127342
0.000122702
0.000117686
0.000112253
0.000106369
0.00010011
9.36855e-05
8.73809e-05
8.14626e-05
7.60648e-05
7.12783e-05
6.7181e-05
6.35653e-05
6.15002e-05
5.87776e-05
5.81126e-05
6.12789e-05
3.67276e-05
0.000125297
0.000123376
0.0001215
0.00011937
0.000117166
0.000114907
0.000112635
0.000110421
0.00010827
0.000106166
0.000104079
0.000101969
9.97986e-05
9.75214e-05
9.50855e-05
9.24558e-05
8.95966e-05
8.64784e-05
8.30787e-05
7.93901e-05
7.54111e-05
7.11431e-05
6.65998e-05
6.18429e-05
5.6969e-05
5.20692e-05
4.7229e-05
4.25253e-05
3.80249e-05
3.37795e-05
2.98325e-05
2.62313e-05
2.30094e-05
2.02056e-05
1.78366e-05
1.61823e-05
1.5018e-05
1.53419e-05
1.94557e-05
0.000111999
0.000113651
0.000115448
0.000117232
0.000119089
0.000120947
0.000122728
0.000124415
0.000125952
0.000127308
0.000128443
0.000129319
0.000129906
0.000130163
0.000130054
0.000129544
0.000128593
0.00012718
0.000125275
0.00012293
0.000120083
0.000116735
0.000112961
0.000108821
0.000104281
9.93046e-05
9.39536e-05
8.8397e-05
8.28694e-05
7.75995e-05
7.27306e-05
6.83433e-05
6.45601e-05
6.12408e-05
5.88054e-05
5.75393e-05
5.38025e-05
5.89958e-05
5.174e-05
0.000110309
0.000108611
0.000106951
0.000105099
0.00010318
0.000101228
9.92883e-05
9.74207e-05
9.5627e-05
9.38936e-05
9.21901e-05
9.04816e-05
8.8737e-05
8.69102e-05
8.49552e-05
8.28353e-05
8.05162e-05
7.79689e-05
7.51658e-05
7.20898e-05
6.87282e-05
6.5082e-05
6.1156e-05
5.69983e-05
5.2694e-05
4.83363e-05
4.40008e-05
3.97524e-05
3.56509e-05
3.17476e-05
2.80867e-05
2.47144e-05
2.16664e-05
1.8977e-05
1.66618e-05
1.49655e-05
1.37313e-05
1.37887e-05
1.71451e-05
9.87937e-05
0.000100267
0.000101886
0.000103499
0.000105197
0.000106906
0.000108563
0.000110154
0.000111629
0.000112962
0.000114119
0.000115068
0.000115787
0.000116237
0.000116392
0.000116213
0.000115672
0.000114741
0.00011339
0.000111646
0.000109472
0.000106846
0.000103813
0.00010043
9.66728e-05
9.25006e-05
8.79592e-05
8.31863e-05
7.8373e-05
7.37124e-05
6.93482e-05
6.53598e-05
6.18644e-05
5.88527e-05
5.62379e-05
5.54581e-05
5.17184e-05
5.33238e-05
5.55522e-05
9.73075e-05
9.57973e-05
9.43224e-05
9.27049e-05
9.10295e-05
8.93385e-05
8.76754e-05
8.60887e-05
8.45806e-05
8.31378e-05
8.17395e-05
8.0347e-05
7.89326e-05
7.74569e-05
7.58776e-05
7.41637e-05
7.228e-05
7.01947e-05
6.7882e-05
6.53204e-05
6.24926e-05
5.93865e-05
5.60029e-05
5.23821e-05
4.86021e-05
4.47436e-05
4.08731e-05
3.70483e-05
3.33218e-05
2.97431e-05
2.63562e-05
2.32051e-05
2.03244e-05
1.77484e-05
1.54883e-05
1.37594e-05
1.24655e-05
1.23105e-05
1.50311e-05
8.72967e-05
8.86157e-05
9.00734e-05
9.15318e-05
9.30789e-05
9.46436e-05
9.61754e-05
9.7659e-05
9.90564e-05
0.000100341
0.000101489
0.000102469
0.000103266
0.000103845
0.000104183
0.000104251
0.000104018
0.00010346
0.000102547
0.000101288
9.96702e-05
9.76469e-05
9.52438e-05
9.25148e-05
8.9439e-05
8.59727e-05
8.21484e-05
7.80785e-05
7.39165e-05
6.98245e-05
6.59365e-05
6.23361e-05
5.91182e-05
5.63792e-05
5.37787e-05
5.29333e-05
5.01392e-05
4.86192e-05
5.31772e-05
8.59771e-05
8.46315e-05
8.3319e-05
8.18961e-05
8.04313e-05
7.89663e-05
7.75334e-05
7.61803e-05
7.49048e-05
7.3696e-05
7.25352e-05
7.13904e-05
7.02342e-05
6.90359e-05
6.77553e-05
6.63609e-05
6.4824e-05
6.31147e-05
6.1205e-05
5.90718e-05
5.66957e-05
5.40583e-05
5.11535e-05
4.80137e-05
4.47053e-05
4.13005e-05
3.78547e-05
3.44219e-05
3.10471e-05
2.77759e-05
2.46508e-05
2.17124e-05
1.89925e-05
1.65279e-05
1.43248e-05
1.25725e-05
1.12272e-05
1.09066e-05
1.31072e-05
7.72487e-05
7.84347e-05
7.97487e-05
8.10701e-05
8.24746e-05
8.39053e-05
8.53135e-05
8.66901e-05
8.79982e-05
8.92206e-05
9.03325e-05
9.13135e-05
9.21448e-05
9.28047e-05
9.327e-05
9.35137e-05
9.35122e-05
9.32389e-05
9.26714e-05
9.18013e-05
9.0629e-05
8.9105e-05
8.72341e-05
8.5065e-05
8.25753e-05
7.97243e-05
7.65333e-05
7.30911e-05
6.9519e-05
6.59534e-05
6.25131e-05
5.92857e-05
5.63405e-05
5.38358e-05
5.13655e-05
5.02586e-05
4.83686e-05
4.52874e-05
4.87895e-05
7.60646e-05
7.48681e-05
7.36986e-05
7.24423e-05
7.11614e-05
6.98887e-05
6.86506e-05
6.74899e-05
6.64049e-05
6.53855e-05
6.44176e-05
6.34702e-05
6.25197e-05
6.15371e-05
6.04888e-05
5.93498e-05
5.80918e-05
5.66861e-05
5.51064e-05
5.33303e-05
5.13357e-05
4.91005e-05
4.66133e-05
4.38975e-05
4.10095e-05
3.80114e-05
3.49559e-05
3.18843e-05
2.8837e-05
2.58555e-05
2.29785e-05
2.02439e-05
1.76825e-05
1.53282e-05
1.31845e-05
1.14169e-05
1.00281e-05
9.5753e-06
1.1356e-05
6.84385e-05
6.95088e-05
7.06946e-05
7.18942e-05
7.31698e-05
7.44761e-05
7.57673e-05
7.7038e-05
7.82573e-05
7.94071e-05
8.04712e-05
8.14296e-05
8.22689e-05
8.29714e-05
8.35157e-05
8.3883e-05
8.40492e-05
8.39915e-05
8.36894e-05
8.31273e-05
8.2313e-05
8.11927e-05
7.97634e-05
7.8064e-05
7.60769e-05
7.37599e-05
7.11242e-05
6.82383e-05
6.5198e-05
6.21143e-05
5.90931e-05
5.62191e-05
5.35429e-05
5.12453e-05
4.8957e-05
4.75949e-05
4.62612e-05
4.28101e-05
4.43668e-05
6.73723e-05
6.63083e-05
6.52678e-05
6.41552e-05
6.30322e-05
6.1922e-05
6.08494e-05
5.98508e-05
5.89229e-05
5.80588e-05
5.72453e-05
5.64542e-05
5.56653e-05
5.48564e-05
5.39956e-05
5.30586e-05
5.20225e-05
5.08618e-05
4.95526e-05
4.80705e-05
4.63951e-05
4.45024e-05
4.23774e-05
4.0035e-05
3.75227e-05
3.48903e-05
3.21871e-05
2.94455e-05
2.67014e-05
2.39903e-05
2.13478e-05
1.8808e-05
1.64018e-05
1.41564e-05
1.20743e-05
1.02994e-05
8.87362e-06
8.31908e-06
9.77131e-06
6.06944e-05
6.16636e-05
6.27347e-05
6.38224e-05
6.49823e-05
6.6173e-05
6.73556e-05
6.85244e-05
6.96558e-05
7.07307e-05
7.17385e-05
7.26605e-05
7.34888e-05
7.42052e-05
7.47961e-05
7.52448e-05
7.553e-05
7.56322e-05
7.55316e-05
7.52121e-05
7.46802e-05
7.38878e-05
7.28216e-05
7.15164e-05
6.9953e-05
6.80913e-05
6.59351e-05
6.35364e-05
6.09709e-05
5.83257e-05
5.56913e-05
5.31489e-05
5.07367e-05
4.86231e-05
4.65336e-05
4.49963e-05
4.38876e-05
4.06988e-05
4.05362e-05
5.97362e-05
5.87912e-05
5.78659e-05
5.68783e-05
5.58897e-05
5.49176e-05
5.39845e-05
5.31202e-05
5.23231e-05
5.15861e-05
5.08988e-05
5.02342e-05
4.95751e-05
4.89032e-05
4.81917e-05
4.74174e-05
4.65602e-05
4.55969e-05
4.45083e-05
4.3271e-05
4.18629e-05
4.02593e-05
3.84433e-05
3.6425e-05
3.42424e-05
3.19387e-05
2.95519e-05
2.71119e-05
2.46469e-05
2.21874e-05
1.97664e-05
1.74125e-05
1.51553e-05
1.30175e-05
1.10001e-05
9.22662e-06
7.76997e-06
7.13758e-06
8.34048e-06
5.38775e-05
5.47544e-05
5.57227e-05
5.67079e-05
5.77619e-05
5.88465e-05
5.99267e-05
6.10014e-05
6.20462e-05
6.30471e-05
6.39934e-05
6.48713e-05
6.5674e-05
6.63873e-05
6.70004e-05
6.74982e-05
6.78636e-05
6.8081e-05
6.81311e-05
6.79987e-05
6.76872e-05
6.71559e-05
6.63873e-05
6.54067e-05
6.41984e-05
6.27233e-05
6.09798e-05
5.90054e-05
5.68581e-05
5.46074e-05
5.23269e-05
5.00912e-05
4.79326e-05
4.59936e-05
4.4092e-05
4.24767e-05
4.13785e-05
3.86603e-05
3.73608e-05
5.30191e-05
5.21813e-05
5.13584e-05
5.04792e-05
4.96054e-05
4.87501e-05
4.79342e-05
4.71832e-05
4.64944e-05
4.58612e-05
4.52755e-05
4.47133e-05
4.41598e-05
4.35989e-05
4.30053e-05
4.2361e-05
4.16483e-05
4.08478e-05
3.99389e-05
3.8902e-05
3.77169e-05
3.63588e-05
3.4808e-05
3.30719e-05
3.11788e-05
2.91648e-05
2.70616e-05
2.48935e-05
2.26833e-05
2.04573e-05
1.8243e-05
1.60659e-05
1.39522e-05
1.19205e-05
9.97041e-06
8.20602e-06
6.72366e-06
6.03181e-06
7.05661e-06
4.78708e-05
4.86613e-05
4.95365e-05
5.04273e-05
5.13837e-05
5.2371e-05
5.33559e-05
5.43417e-05
5.5303e-05
5.62313e-05
5.7115e-05
5.79438e-05
5.8711e-05
5.94083e-05
6.00243e-05
6.05476e-05
6.09658e-05
6.12622e-05
6.14237e-05
6.14322e-05
6.12929e-05
6.09673e-05
6.04377e-05
5.97209e-05
5.88061e-05
5.76572e-05
5.62649e-05
5.46574e-05
5.28767e-05
5.09766e-05
4.90177e-05
4.70649e-05
4.5143e-05
4.33723e-05
4.16417e-05
4.00303e-05
3.88411e-05
3.6565e-05
3.46993e-05
4.71029e-05
4.63611e-05
4.5629e-05
4.48451e-05
4.40695e-05
4.33146e-05
4.25967e-05
4.19401e-05
4.13407e-05
4.07928e-05
4.02897e-05
3.98102e-05
3.9341e-05
3.88698e-05
3.83724e-05
3.78331e-05
3.72371e-05
3.65674e-05
3.58063e-05
3.49354e-05
3.39352e-05
3.27839e-05
3.14597e-05
2.99664e-05
2.83261e-05
2.65674e-05
2.47165e-05
2.27935e-05
2.08157e-05
1.88051e-05
1.67842e-05
1.47749e-05
1.27998e-05
1.08732e-05
8.99327e-06
7.24529e-06
5.74086e-06
5.00183e-06
5.91014e-06
4.25714e-05
4.32832e-05
4.40713e-05
4.48765e-05
4.57424e-05
4.66385e-05
4.75361e-05
4.84371e-05
4.93197e-05
5.01762e-05
5.09978e-05
5.17743e-05
5.25027e-05
5.31745e-05
5.3781e-05
5.43138e-05
5.47614e-05
5.51106e-05
5.53505e-05
5.54632e-05
5.54539e-05
5.52888e-05
5.49475e-05
5.44456e-05
5.37705e-05
5.28905e-05
5.17942e-05
5.05007e-05
4.9039e-05
4.74492e-05
4.57786e-05
4.40837e-05
4.23858e-05
4.07722e-05
3.91967e-05
3.7641e-05
3.63446e-05
3.43881e-05
3.23507e-05
4.18858e-05
4.12293e-05
4.05772e-05
3.98765e-05
3.91865e-05
3.8518e-05
3.78834e-05
3.73057e-05
3.67805e-05
3.63032e-05
3.58677e-05
3.54549e-05
3.50538e-05
3.46539e-05
3.42341e-05
3.37797e-05
3.32791e-05
3.27166e-05
3.20764e-05
3.13425e-05
3.04978e-05
2.95196e-05
2.83875e-05
2.71027e-05
2.56812e-05
2.41476e-05
2.25208e-05
2.08177e-05
1.9051e-05
1.7238e-05
1.53974e-05
1.35469e-05
1.17052e-05
9.88296e-06
8.07644e-06
6.3523e-06
4.82841e-06
4.04829e-06
4.89459e-06
3.78903e-05
3.85307e-05
3.92391e-05
3.99654e-05
4.07486e-05
4.156e-05
4.23764e-05
4.31978e-05
4.40061e-05
4.47936e-05
4.55542e-05
4.6278e-05
4.69633e-05
4.76026e-05
4.81907e-05
4.87187e-05
4.91796e-05
4.95617e-05
4.98546e-05
5.00421e-05
5.01296e-05
5.00869e-05
4.9894e-05
4.95617e-05
4.90806e-05
4.84219e-05
4.75729e-05
4.65443e-05
4.53565e-05
4.40383e-05
4.26253e-05
4.11624e-05
3.96711e-05
3.82116e-05
3.67703e-05
3.53045e-05
3.39331e-05
3.21719e-05
3.01609e-05
3.72787e-05
3.6696e-05
3.61149e-05
3.54881e-05
3.48737e-05
3.42797e-05
3.37169e-05
3.3206e-05
3.2743e-05
3.23235e-05
3.19428e-05
3.15853e-05
3.124e-05
3.0897e-05
3.05393e-05
3.01536e-05
2.97308e-05
2.92562e-05
2.87155e-05
2.80949e-05
2.73794e-05
2.65465e-05
2.55776e-05
2.4472e-05
2.32415e-05
2.19036e-05
2.04753e-05
1.89683e-05
1.73926e-05
1.57606e-05
1.40875e-05
1.23871e-05
1.06743e-05
8.95663e-06
7.22754e-06
5.53525e-06
3.99353e-06
3.1716e-06
4.00571e-06
3.375e-05
3.4325e-05
3.49618e-05
3.56155e-05
3.63228e-05
3.7057e-05
3.77972e-05
3.85448e-05
3.92831e-05
4.00047e-05
4.07052e-05
4.13762e-05
4.20163e-05
4.26199e-05
4.31824e-05
4.36982e-05
4.41596e-05
4.45573e-05
4.4883e-05
4.51229e-05
4.52802e-05
4.533e-05
4.5252e-05
4.50528e-05
4.47258e-05
4.42464e-05
4.3601e-05
4.27941e-05
4.18391e-05
4.07559e-05
3.957e-05
3.83164e-05
3.70128e-05
3.57011e-05
3.43806e-05
3.30199e-05
3.16209e-05
2.99648e-05
2.8053e-05
3.32032e-05
3.26843e-05
3.21663e-05
3.16061e-05
3.10584e-05
3.05298e-05
3.00295e-05
2.95757e-05
2.91653e-05
2.87943e-05
2.84598e-05
2.8146e-05
2.78452e-05
2.75497e-05
2.72427e-05
2.69133e-05
2.65532e-05
2.615e-05
2.56915e-05
2.51654e-05
2.45571e-05
2.38469e-05
2.30164e-05
2.20635e-05
2.0998e-05
1.98317e-05
1.85786e-05
1.72468e-05
1.58431e-05
1.43769e-05
1.28593e-05
1.13014e-05
9.71308e-06
8.10041e-06
6.45346e-06
4.80216e-06
3.24387e-06
2.37159e-06
3.24191e-06
3.00815e-05
3.05985e-05
3.11699e-05
3.17582e-05
3.23959e-05
3.30595e-05
3.37297e-05
3.44083e-05
3.50809e-05
3.574e-05
3.6383e-05
3.70021e-05
3.75965e-05
3.81623e-05
3.86952e-05
3.9191e-05
3.96433e-05
4.00447e-05
4.03888e-05
4.06637e-05
4.08689e-05
4.09871e-05
4.09946e-05
4.0898e-05
4.06925e-05
4.03572e-05
3.98771e-05
3.9254e-05
3.8495e-05
3.76127e-05
3.66247e-05
3.55565e-05
3.44238e-05
3.32519e-05
3.20437e-05
3.07858e-05
2.94106e-05
2.78195e-05
2.60097e-05
2.95913e-05
2.91286e-05
2.86665e-05
2.81662e-05
2.76781e-05
2.72074e-05
2.67619e-05
2.6358e-05
2.59927e-05
2.56627e-05
2.5366e-05
2.50894e-05
2.48255e-05
2.45679e-05
2.43019e-05
2.40185e-05
2.37103e-05
2.33663e-05
2.29757e-05
2.25279e-05
2.20093e-05
2.1402e-05
2.06889e-05
1.98675e-05
1.89439e-05
1.79275e-05
1.68282e-05
1.56523e-05
1.44038e-05
1.30893e-05
1.17162e-05
1.02928e-05
8.82556e-06
7.31862e-06
5.75999e-06
4.16157e-06
2.59209e-06
1.64715e-06
2.60629e-06
2.68261e-05
2.72909e-05
2.78038e-05
2.83332e-05
2.8908e-05
2.95069e-05
3.01133e-05
3.07286e-05
3.13396e-05
3.19405e-05
3.25287e-05
3.30976e-05
3.36468e-05
3.41733e-05
3.46737e-05
3.5145e-05
3.5582e-05
3.59789e-05
3.63293e-05
3.66234e-05
3.6859e-05
3.70243e-05
3.70953e-05
3.70763e-05
3.69652e-05