/*--------------------------------*- C++ -*----------------------------------*\
| =========                 |                                                 |
| \\      /  F ield         | OpenFOAM: The Open Source CFD Toolbox           |
|  \\    /   O peration     | Version:  2312                                  |
|   \\  /    A nd           | Website:  www.openfoam.com                      |
|    \\/     M anipulation  |                                                 |
\*---------------------------------------------------------------------------*/
FoamFile
{
    version     2.0;
    format      ascii;
    arch        "LSB;label=32;scalar=64";
    class       volVectorField;
    location    "100";
    object      momentError;
}
// * * * * * * * * * * * * * * * * * * * * * * * * * * * * * * * * * * * * * //

dimensions      [0 1 -2 0 0 0 0];

internalField   nonuniform List<vector> 
10720
(
(2.55296 -12.6706 3.14748e-15)
(1.78019 -12.6667 -4.47804e-16)
(0.374964 -10.7246 -1.57243e-14)
(-0.530678 -10.2506 5.27606e-14)
(-1.2163 -9.28052 4.05808e-14)
(-1.70959 -8.2315 -9.74239e-14)
(-2.1022 -7.2157 -9.25907e-14)
(-2.27559 -6.10484 -7.52472e-14)
(-2.28661 -5.07829 1.39935e-14)
(-2.20012 -4.15248 4.29411e-15)
(-2.02576 -3.34757 -1.52828e-14)
(-1.8016 -2.63562 5.4699e-14)
(-1.59567 -2.17435 -1.80473e-13)
(-1.03987 -1.32183 -3.33098e-13)
(-0.691601 -0.834772 6.18424e-14)
(-0.422329 -0.443035 -9.01625e-14)
(-0.172921 -0.108744 9.75601e-14)
(0.0705469 0.136596 7.76945e-13)
(0.294217 0.298526 2.11684e-13)
(0.482426 0.385522 -4.29305e-13)
(0.622512 0.403447 -2.01094e-13)
(0.649932 0.35488 7.06386e-14)
(0.530619 0.238032 3.46558e-13)
(0.170416 0.131315 -2.51033e-13)
(-0.0932946 0.0981406 4.76138e-14)
(-0.195501 0.0727649 -3.58638e-14)
(-0.196305 0.0340463 -6.35856e-14)
(-0.22436 0.0129944 1.02925e-14)
(-0.266294 0.0158254 9.49434e-15)
(-0.293308 0.0259884 1.91459e-13)
(-0.405934 0.0429507 1.48692e-13)
(-0.474328 0.0540125 -1.60895e-13)
(-0.526126 0.063601 -1.1664e-13)
(-0.583751 0.0787736 -2.13296e-13)
(-0.660404 0.100924 -1.47334e-13)
(-0.728173 0.123371 1.32914e-13)
(-0.838735 0.161146 -1.26206e-14)
(-0.575537 0.127964 1.12179e-14)
(-0.853114 0.100791 -5.6715e-14)
(2.78207 -11.4364 1.58227e-14)
(2.88731 -9.09309 -2.93875e-14)
(2.92879 -6.91293 3.34846e-14)
(2.7449 -4.99828 1.30869e-13)
(2.11324 -2.82588 3.0761e-14)
(0.76293 -0.619444 -2.01355e-13)
(-0.0390414 0.221619 -8.30705e-14)
(0.324338 -0.495631 -4.48769e-14)
(1.10133 -1.3517 -3.89305e-14)
(1.43079 -1.32768 5.44274e-14)
(1.39402 -1.05703 -6.53005e-14)
(1.31631 -0.863126 -1.21495e-13)
(1.24585 -0.719823 2.99294e-14)
(1.15147 -0.590625 5.95856e-14)
(1.0348 -0.479544 -9.71673e-14)
(0.921789 -0.395924 -8.40834e-14)
(0.826109 -0.33051 -5.842e-14)
(0.740621 -0.277757 -6.92899e-14)
(0.665088 -0.233794 -2.50531e-14)
(0.597753 -0.197456 -1.373e-15)
(0.539136 -0.166279 2.15155e-14)
(0.487283 -0.140205 4.25753e-14)
(0.442982 -0.117672 -1.76928e-14)
(0.40382 -0.0977839 -1.33918e-14)
(0.365986 -0.0777147 1.17548e-14)
(0.327477 -0.0643235 -2.988e-15)
(0.297218 -0.0497776 1.02913e-15)
(0.277258 -0.0267201 1.49622e-15)
(0.260213 -0.0090218 -6.07795e-16)
(0.244323 0.000862235 1.29671e-15)
(0.2325 0.00718205 3.65076e-15)
(0.22102 0.0119782 -3.21224e-15)
(0.210011 0.0157328 -2.85408e-15)
(0.200546 0.0186833 -3.48215e-14)
(0.191923 0.0207598 -3.35248e-14)
(0.186186 0.0237569 1.73702e-14)
(0.186831 0.0206303 4.73078e-15)
(0.16527 0.0633027 -1.88562e-16)
(0.158732 -0.136934 -4.33117e-14)
(-0.580469 -9.39977 -6.13562e-15)
(-1.39188 -9.4413 5.97858e-15)
(-2.2329 -8.0973 -5.10792e-15)
(-3.23906 -7.84532 -3.93862e-15)
(-3.91775 -7.24554 4.31018e-15)
(-4.37858 -6.55091 3.76892e-14)
(-4.81839 -5.80705 4.98456e-14)
(-5.02169 -5.0121 2.15044e-14)
(-5.0291 -4.24105 -6.22248e-14)
(-4.94644 -3.52001 -2.34905e-14)
(-4.72872 -2.8774 -2.02453e-13)
(-4.46153 -2.34189 -3.62693e-13)
(-4.09834 -1.79913 -1.86728e-14)
(-4.00835 -1.89956 -1.53997e-14)
(-3.84733 -1.7243 -7.30455e-14)
(-3.49541 -1.55274 7.60819e-14)
(-3.2041 -1.32892 3.27794e-13)
(-2.8858 -1.14001 -6.07979e-13)
(-2.54594 -0.967555 -4.84613e-13)
(-2.17868 -0.795913 -3.21192e-13)
(-1.77561 -0.618598 2.14365e-13)
(-1.31872 -0.430107 2.17265e-13)
(-0.95961 -0.212647 -3.21684e-13)
(-0.654857 -0.021368 5.50845e-14)
(-0.621466 0.073302 -1.99654e-15)
(-0.621686 0.0593561 -7.20818e-15)
(-0.612526 0.0339248 -3.7172e-15)
(-0.615432 0.0269764 1.10978e-14)
(-0.618956 0.0407848 -2.53955e-14)
(-0.6223 0.0622127 -1.62759e-14)
(-0.54097 0.0788906 4.30892e-15)
(-0.530281 0.0945651 -5.99442e-15)
(-0.579613 0.111957 -1.01083e-13)
(-0.663961 0.13371 -6.60229e-14)
(-0.774528 0.162295 1.398e-13)
(-0.927667 0.201421 2.59277e-14)
(-1.22358 0.269953 5.68479e-14)
(-1.24791 0.273792 3.93526e-16)
(-1.79409 0.296806 -3.25561e-14)
(-0.0785065 -8.6903 -2.05156e-14)
(0.541301 -7.15151 1.88751e-13)
(1.05391 -5.52205 -5.69862e-14)
(1.34786 -4.14803 -1.37816e-13)
(1.40155 -2.64737 6.57545e-14)
(0.899232 -1.20401 9.96376e-14)
(0.563385 -0.705106 -1.11116e-13)
(0.78518 -1.02615 1.92223e-13)
(1.1974 -1.28882 1.29413e-13)
(1.4751 -1.09478 -7.57887e-14)
(1.53934 -0.829412 6.15337e-14)
(1.50847 -0.629377 -9.57279e-14)
(1.44337 -0.471194 2.71809e-14)
(1.34839 -0.337386 8.32228e-15)
(1.23296 -0.237445 1.8326e-14)
(1.11325 -0.174109 2.00114e-14)
(1.00585 -0.129107 3.98412e-14)
(0.908613 -0.0969758 -1.09079e-14)
(0.821699 -0.0721294 2.42203e-15)
(0.743419 -0.0537407 -5.11805e-15)
(0.674239 -0.0383086 1.33925e-14)
(0.612354 -0.0266185 3.82176e-14)
(0.557862 -0.0163999 -1.73747e-15)
(0.507799 -0.00582151 -8.84336e-15)
(0.461294 0.00896715 -8.544e-15)
(0.416533 0.0226946 6.4492e-15)
(0.376265 0.0292013 5.1214e-16)
(0.345089 0.0323864 -2.31197e-16)
(0.318523 0.0323051 5.0572e-17)
(0.295224 0.0296041 4.69454e-17)
(0.272214 0.0291971 -9.91667e-17)
(0.250607 0.0293375 -4.75702e-15)
(0.232234 0.029945 7.59332e-15)
(0.217142 0.0305814 2.12444e-14)
(0.204875 0.0310653 6.33695e-15)
(0.194971 0.031935 -1.11769e-14)
(0.203666 0.0342687 3.18596e-15)
(0.125485 0.0390869 8.95411e-17)
(0.607123 0.0285266 1.07911e-14)
(0.630778 -7.86773 1.69912e-15)
(0.139051 -7.87539 9.44024e-15)
(-0.465898 -6.85 4.09365e-15)
(-1.11247 -6.88464 -1.52334e-14)
(-1.55963 -6.57348 2.62406e-14)
(-1.9554 -6.10626 -3.80785e-14)
(-2.33329 -5.64076 -4.44064e-14)
(-2.56785 -5.09051 9.38375e-14)
(-2.68542 -4.48705 4.35853e-14)
(-2.73297 -3.90471 6.85893e-14)
(-2.68122 -3.34432 1.33587e-14)
(-2.57218 -2.82778 6.07347e-15)
(-2.41986 -2.37199 2.78803e-13)
(-2.24793 -1.94137 7.83241e-15)
(-2.03927 -1.55732 1.84877e-13)
(-1.96913 -1.16042 -8.29976e-15)
(-1.96057 -0.843319 -5.82872e-13)
(-1.91106 -0.641844 3.59163e-13)
(-1.86831 -0.504186 8.09407e-13)
(-1.84631 -0.407783 1.49439e-13)
(-1.84691 -0.340773 -4.10761e-14)
(-1.83589 -0.272952 -3.39058e-14)
(-1.69563 -0.210126 1.32366e-13)
(-1.44398 -0.0673624 1.08667e-13)
(-1.12078 0.0541218 -8.74569e-14)
(-0.839273 0.106725 -1.87844e-14)
(-0.711031 0.08846 -4.95701e-14)
(-0.676686 0.0687022 2.76552e-14)
(-0.740818 0.0643772 -2.43133e-14)
(-0.800784 0.0806593 -1.45256e-13)
(-0.874394 0.0986138 -8.5162e-15)
(-0.922587 0.119133 2.16814e-13)
(-0.941135 0.147268 3.44086e-14)
(-0.970154 0.183781 9.4736e-14)
(-1.07183 0.231458 1.28399e-13)
(-1.24765 0.287566 1.94578e-14)
(-1.5587 0.369212 -7.10313e-14)
(-1.71392 0.397729 -7.05201e-15)
(-2.30769 0.399118 1.28569e-14)
(0.960473 -7.3263 3.12693e-14)
(1.16282 -6.13238 -4.94036e-14)
(1.29362 -4.75675 -6.74279e-14)
(1.32086 -3.67813 -2.63193e-15)
(1.21945 -2.54404 -2.56532e-15)
(0.931255 -1.44598 -6.77624e-14)
(0.80199 -1.14893 3.57094e-14)
(1.04275 -1.34451 -1.90778e-13)
(1.29939 -1.38527 -1.22563e-13)
(1.45408 -1.2438 -1.09075e-13)
(1.48707 -1.06218 1.06272e-13)
(1.44466 -0.893763 1.13839e-13)
(1.36672 -0.739148 -6.07386e-14)
(1.26846 -0.601036 -1.34928e-13)
(1.15805 -0.488988 3.84822e-14)
(1.04426 -0.402575 6.24379e-14)
(0.939616 -0.33366 -1.67067e-14)
(0.84608 -0.277617 -7.60523e-14)
(0.762974 -0.23122 -2.13736e-14)
(0.688785 -0.192737 2.76351e-15)
(0.623656 -0.159929 -1.43193e-14)
(0.56575 -0.132354 -3.04955e-14)
(0.514125 -0.107872 6.59506e-15)
(0.466135 -0.084543 -7.08722e-16)
(0.42114 -0.0610252 -3.78199e-16)
(0.378133 -0.0417633 -1.59192e-15)
(0.337867 -0.0295901 -3.12034e-15)
(0.303707 -0.019761 3.23716e-16)
(0.275557 -0.0104968 -1.13415e-16)
(0.253533 -0.000656973 -1.72384e-15)
(0.236704 0.00736545 -6.83716e-18)
(0.221865 0.0128673 5.93877e-15)
(0.209304 0.0171512 -5.05879e-15)
(0.199336 0.0203798 -8.25218e-15)
(0.190995 0.022706 7.37774e-16)
(0.184724 0.0252527 -2.10053e-16)
(0.191179 0.0273362 5.4865e-15)
(0.152817 0.0391404 9.38349e-15)
(0.279277 0.0169804 -6.5509e-14)
(0.0686046 -6.49642 1.35401e-14)
(-0.401733 -6.48491 6.98689e-15)
(-0.886127 -5.71879 -2.27842e-15)
(-1.48306 -5.78319 -3.21022e-15)
(-1.90099 -5.50771 -3.3652e-15)
(-2.2903 -5.11642 -8.65706e-15)
(-2.67733 -4.73108 6.32748e-14)
(-2.92971 -4.25136 1.17407e-14)
(-3.08226 -3.72404 -1.68534e-13)
(-3.16905 -3.2115 5.73423e-14)
(-3.14976 -2.71092 2.01543e-13)
(-3.06545 -2.24639 2.62711e-13)
(-2.93137 -1.82527 6.06016e-14)
(-2.75835 -1.45373 -3.13012e-13)
(-2.5481 -1.15558 -7.86439e-14)
(-2.36424 -0.895818 -7.56106e-14)
(-2.08439 -0.806196 -1.48383e-13)
(-1.89966 -0.6688 -3.23481e-13)
(-1.72675 -0.547669 -5.59614e-13)
(-1.57264 -0.437762 1.4017e-13)
(-1.45678 -0.34123 -1.08272e-13)
(-1.38708 -0.258011 -1.62609e-13)
(-1.33362 -0.145168 9.78323e-16)
(-1.233 -0.0285227 -2.19894e-13)
(-1.03632 0.0695055 -4.07263e-14)
(-0.828202 0.101836 3.84775e-14)
(-0.661213 0.0944551 4.58829e-14)
(-0.539549 0.0595638 -2.11641e-14)
(-0.532589 0.0841594 3.0115e-14)
(-0.479214 0.0967114 5.945e-14)
(-0.487088 0.103475 -5.39277e-14)
(-0.660315 0.133972 7.55537e-15)
(-0.863338 0.164534 1.64053e-13)
(-1.10063 0.212853 8.46221e-14)
(-1.30132 0.278438 -3.19336e-14)
(-1.50775 0.360529 -9.57515e-14)
(-1.87066 0.472447 -1.98353e-14)
(-2.17842 0.540253 -1.38673e-14)
(-2.77847 0.487648 6.11144e-14)
(0.436195 -6.07514 -5.08393e-15)
(0.726907 -5.20828 -4.19728e-14)
(0.959323 -4.13541 -3.99577e-14)
(1.08043 -3.28672 -4.81303e-14)
(1.06304 -2.38777 1.579e-13)
(0.922757 -1.61705 1.83851e-13)
(0.906581 -1.43208 2.2616e-14)
(1.14682 -1.54065 1.63777e-13)
(1.32429 -1.47654 -1.63978e-14)
(1.4308 -1.30468 -4.68502e-14)
(1.46813 -1.10304 -7.38299e-14)
(1.44183 -0.903745 -3.34407e-14)
(1.37503 -0.721288 -2.72442e-14)
(1.28715 -0.562503 7.08046e-14)
(1.18718 -0.432358 -3.84095e-14)
(1.08044 -0.330079 -1.13075e-13)
(0.978986 -0.25153 -1.65763e-14)
(0.885442 -0.191181 7.10018e-14)
(0.800835 -0.144789 -2.77177e-15)
(0.724068 -0.109116 -1.98068e-14)
(0.655896 -0.0813104 -5.07043e-14)
(0.594409 -0.0596375 1.99791e-14)
(0.53834 -0.041875 2.5552e-14)
(0.485545 -0.0258968 -4.9003e-15)
(0.436606 -0.00977587 -1.49181e-15)
(0.391352 0.00386256 1.54531e-15)
(0.349221 0.0123798 1.77388e-15)
(0.312253 0.01826 -5.59647e-17)
(0.280461 0.0224141 4.93073e-16)
(0.253368 0.0251494 6.09091e-16)
(0.231867 0.0260178 -1.70793e-15)
(0.214213 0.0269394 -3.26737e-15)
(0.199378 0.027649 -1.37317e-15)
(0.187524 0.0281033 3.75192e-15)
(0.177294 0.0277323 7.20204e-15)
(0.171285 0.0312006 1.22497e-15)
(0.172334 0.0272835 -1.27243e-14)
(0.162201 0.0457971 -2.18298e-14)
(0.209782 0.01257 -2.77153e-14)
(0.186969 -5.56764 -1.17587e-14)
(-0.172692 -5.55742 9.90406e-15)
(-0.546032 -4.96938 -6.10675e-15)
(-1.01927 -5.08992 1.88354e-15)
(-1.3512 -4.90141 1.24561e-14)
(-1.66921 -4.613 6.22296e-15)
(-2.00102 -4.35637 -1.324e-14)
(-2.22052 -3.99898 1.77686e-14)
(-2.37317 -3.59402 -6.62534e-14)
(-2.47293 -3.19398 -2.06492e-13)
(-2.48609 -2.78473 -8.29728e-15)
(-2.44481 -2.39048 -1.0294e-13)
(-2.35881 -2.02548 -6.10767e-14)
(-2.23128 -1.69464 -1.56503e-14)
(-2.08218 -1.40503 -2.6707e-13)
(-1.91612 -1.16153 2.53612e-13)
(-1.78301 -0.900961 1.42265e-13)
(-1.69706 -0.678745 -3.1863e-13)
(-1.60098 -0.515267 1.08954e-13)
(-1.49249 -0.386472 -1.76257e-13)
(-1.38604 -0.282974 -1.20831e-13)
(-1.28217 -0.19606 2.23786e-13)
(-1.18548 -0.116973 8.064e-15)
(-1.07859 -0.0379664 1.95231e-13)
(-0.938461 0.0259091 8.82365e-14)
(-0.785197 0.05438 -1.79267e-14)
(-0.660751 0.0524622 5.46234e-15)
(-0.611354 0.0582874 2.16885e-14)
(-0.465548 0.0480727 -2.6448e-14)
(-0.408342 0.0699865 -4.74081e-14)
(-0.337318 0.0839442 1.94693e-14)
(-0.268825 0.0941513 -4.72345e-14)
(-0.281915 0.121504 -3.59129e-14)
(-0.472916 0.164608 -1.31592e-13)
(-0.907811 0.252229 -2.22108e-13)
(-1.44958 0.375366 3.90638e-14)
(-2.04599 0.541812 -1.33826e-14)
(-2.58434 0.684391 -3.13621e-15)
(-3.16755 0.547866 -2.17012e-14)
(0.466648 -5.21038 2.3037e-14)
(0.674582 -4.52302 4.16302e-14)
(0.843564 -3.64092 -3.99696e-14)
(0.948129 -2.96054 -3.44387e-14)
(0.949802 -2.24122 3.12818e-14)
(0.897919 -1.72738 -1.3457e-13)
(0.96098 -1.60136 -9.58272e-14)
(1.1664 -1.61503 1.46766e-13)
(1.31306 -1.5125 1.92811e-13)
(1.39274 -1.33911 5.86385e-15)
(1.42319 -1.14797 -4.92411e-14)
(1.40211 -0.960603 -4.05468e-14)
(1.34033 -0.78795 1.1389e-13)
(1.25801 -0.637319 -4.55986e-14)
(1.16503 -0.512194 -1.06365e-14)
(1.0635 -0.410445 8.32288e-14)
(0.965549 -0.330415 -3.78799e-14)
(0.873437 -0.267337 3.27033e-14)
(0.789691 -0.21719 2.11072e-14)
(0.713214 -0.176662 2.851e-15)
(0.645091 -0.143432 5.32956e-14)
(0.583638 -0.115647 -1.90094e-14)
(0.527344 -0.0914428 -3.32242e-14)
(0.474104 -0.0692189 -6.00925e-15)
(0.425231 -0.048374 1.18359e-14)
(0.380853 -0.0308828 -3.78033e-16)
(0.33977 -0.0185176 3.30937e-15)
(0.30351 -0.00962162 -6.23404e-16)
(0.272222 -0.00279503 -2.69709e-16)
(0.245374 0.00273446 6.62849e-16)
(0.222715 0.00823658 1.19998e-15)
(0.205146 0.0122728 1.5677e-15)
(0.189977 0.0155173 -3.05821e-15)
(0.177397 0.018413 -1.1489e-14)
(0.166335 0.0215665 -4.67224e-15)
(0.157065 0.0207244 4.77258e-16)
(0.155011 0.0257582 -3.92712e-15)
(0.148494 0.0405749 -8.70664e-15)
(0.185749 0.0116477 3.56617e-14)
(0.0960528 -4.7972 1.34318e-15)
(-0.224118 -4.78347 -2.5768e-16)
(-0.540251 -4.32244 1.84934e-15)
(-0.95757 -4.44736 -5.0513e-17)
(-1.25388 -4.29412 -1.6243e-15)
(-1.54171 -4.05712 -9.37862e-15)
(-1.85059 -3.85148 -1.81444e-14)
(-2.06384 -3.54928 4.62107e-14)
(-2.22388 -3.2029 1.09314e-13)
(-2.3411 -2.85391 -7.21789e-14)
(-2.37988 -2.48784 -7.49489e-14)
(-2.36796 -2.12834 5.10518e-14)
(-2.31358 -1.79161 -1.10899e-13)
(-2.21493 -1.47959 -1.26181e-14)
(-2.0897 -1.20109 -3.64881e-14)
(-1.94818 -0.957516 1.95015e-14)
(-1.80337 -0.734987 3.69214e-14)
(-1.66067 -0.608386 3.80504e-13)
(-1.56014 -0.494437 3.11248e-13)
(-1.45721 -0.395254 -1.35588e-13)
(-1.36078 -0.303935 1.94349e-13)
(-1.26737 -0.217291 1.73534e-14)
(-1.17296 -0.129838 -5.32495e-14)
(-1.06402 -0.0425177 -1.07073e-13)
(-0.92919 0.0280125 8.40546e-15)
(-0.790025 0.0618084 2.80659e-14)
(-0.679643 0.063846 3.49006e-14)
(-0.603003 0.0602586 -3.31462e-14)
(-0.548575 0.0662231 8.33417e-15)
(-0.497914 0.0785159 6.65602e-14)
(-0.448306 0.0934162 -2.60174e-14)
(-0.339378 0.0993755 -1.46876e-13)
(-0.24607 0.114756 -7.78391e-14)
(-0.123337 0.131603 -5.28899e-14)
(-0.128759 0.180034 5.6425e-14)
(-0.54484 0.282807 5.46553e-14)
(-1.60315 0.511757 4.59749e-14)
(-2.74274 0.773258 5.09706e-14)
(-3.45429 0.600732 3.9783e-15)
(0.353076 -4.49908 -9.60283e-15)
(0.549921 -3.95046 -1.74551e-14)
(0.709456 -3.22728 9.06904e-16)
(0.813896 -2.67549 4.23512e-14)
(0.840312 -2.08791 7.64283e-14)
(0.85332 -1.74616 -2.04829e-13)
(0.965201 -1.67198 -1.35133e-13)
(1.14112 -1.63695 -1.43263e-13)
(1.26741 -1.51743 4.72476e-14)
(1.33557 -1.34609 2.20586e-14)
(1.36474 -1.16312 -6.02868e-14)
(1.3526 -0.982735 4.37487e-15)
(1.3022 -0.81214 -2.34527e-14)
(1.2313 -0.6602 -4.0063e-14)
(1.1491 -0.530737 -1.31203e-13)
(1.05694 -0.421931 -1.26342e-14)
(0.965501 -0.33366 7.55748e-14)
(0.877706 -0.262745 -1.17466e-14)
(0.796329 -0.205909 1.50248e-14)
(0.721105 -0.160167 -2.53135e-14)
(0.653114 -0.123256 -3.72445e-14)
(0.591043 -0.0931774 -2.18068e-15)
(0.533479 -0.0681269 1.18952e-14)
(0.478657 -0.0464881 1.2763e-14)
(0.428301 -0.0272193 -1.33975e-15)
(0.383258 -0.0112693 -3.8806e-15)
(0.34181 -9.36682e-06 -6.50469e-15)
(0.305037 0.00783174 1.23918e-15)
(0.273185 0.013563 2.47346e-16)
(0.245877 0.0181338 -6.50381e-16)
(0.222029 0.0215284 -1.14319e-15)
(0.204717 0.0243883 -1.46818e-15)
(0.189983 0.0262738 2.87221e-15)
(0.17758 0.0276111 1.01173e-14)
(0.166412 0.0282413 3.46945e-15)
(0.157303 0.0303267 -4.70624e-15)
(0.153704 0.0284712 1.3492e-14)
(0.148191 0.0444777 2.726e-14)
(0.177769 0.0180987 -1.52558e-14)
(0.0798018 -4.18671 4.21729e-16)
(-0.191157 -4.17547 -5.06325e-16)
(-0.455751 -3.81242 -3.69924e-15)
(-0.811336 -3.9431 3.44651e-15)
(-1.06517 -3.82306 8.3534e-15)
(-1.31548 -3.63454 -4.76019e-15)
(-1.58767 -3.48209 2.32853e-14)
(-1.77941 -3.23996 -1.23428e-14)
(-1.92941 -2.95837 4.11677e-14)
(-2.04577 -2.67307 7.305e-14)
(-2.09366 -2.36516 1.11229e-14)
(-2.09808 -2.05767 2.24163e-14)
(-2.06445 -1.76491 1.62076e-13)
(-1.98909 -1.48803 2.92974e-13)
(-1.88776 -1.23577 2.65223e-13)
(-1.76951 -1.01121 -4.77972e-15)
(-1.63571 -0.81856 3.34838e-13)
(-1.52156 -0.632062 9.8187e-15)
(-1.45575 -0.496617 -1.01248e-13)
(-1.37962 -0.386581 1.38183e-13)
(-1.30398 -0.291703 -2.30691e-13)
(-1.22657 -0.208402 9.57292e-14)
(-1.14501 -0.130182 1.01944e-13)
(-1.0467 -0.0540578 3.81545e-14)
(-0.921901 0.00900047 1.05986e-13)
(-0.791865 0.0433813 -4.32941e-14)
(-0.686982 0.0512604 -3.73598e-14)
(-0.616308 0.0532019 5.45455e-15)
(-0.567144 0.0620358 2.34269e-14)
(-0.525779 0.0758647 -6.17143e-14)
(-0.489257 0.0897695 -6.03693e-14)
(-0.455139 0.10373 1.21414e-13)
(-0.4063 0.118561 2.70301e-14)
(-0.320923 0.135172 -5.11678e-14)
(-0.11478 0.164432 -5.1155e-16)
(0.175413 0.20536 -1.22095e-13)
(-0.359843 0.371328 -4.09033e-14)
(-2.13449 0.734892 -1.39442e-14)
(-3.48333 0.634747 -3.89594e-14)
(0.299859 -3.93273 -6.5101e-15)
(0.47076 -3.48505 -8.38914e-15)
(0.611693 -2.88255 8.0813e-15)
(0.709641 -2.42114 7.38664e-14)
(0.747077 -1.93091 3.51325e-14)
(0.794361 -1.70752 1.61963e-14)
(0.935457 -1.67527 1.53905e-13)
(1.09009 -1.61393 -9.70745e-14)
(1.20474 -1.49125 -1.50749e-13)
(1.26833 -1.32844 4.09921e-14)
(1.29926 -1.15845 9.32357e-14)
(1.29443 -0.990411 -1.97026e-14)
(1.2546 -0.829348 5.91643e-14)
(1.19502 -0.684276 4.33392e-15)
(1.12292 -0.55867 3.11259e-14)
(1.03933 -0.45083 1.5237e-14)
(0.954614 -0.361755 -3.17645e-14)
(0.871327 -0.289187 2.78153e-14)
(0.792485 -0.230457 -2.08755e-14)
(0.718635 -0.182757 1.91644e-15)
(0.65122 -0.143991 5.09519e-14)
(0.588947 -0.112042 -1.75552e-14)
(0.530811 -0.0851115 -2.25925e-14)
(0.47532 -0.0617195 4.75369e-15)
(0.424651 -0.0412649 -6.31481e-16)
(0.379753 -0.0243976 9.74563e-16)
(0.338683 -0.0119255 3.58966e-15)
(0.302115 -0.00293811 -5.87303e-16)
(0.270322 0.00372016 1.72305e-16)
(0.243076 0.00896444 -1.66276e-18)
(0.219055 0.0130808 -2.45082e-15)
(0.20166 0.0164322 2.21692e-16)
(0.187588 0.0188529 4.0464e-15)
(0.175721 0.0207551 -5.24965e-16)
(0.164953 0.0223297 -5.1488e-16)
(0.15675 0.0241576 2.29289e-15)
(0.152317 0.0251079 -3.86139e-15)
(0.150466 0.0373904 -2.46647e-15)
(0.176928 0.0193982 -4.48837e-14)
(0.0491496 -3.67978 3.89624e-15)
(-0.188081 -3.66771 -4.06236e-15)
(-0.417651 -3.37747 4.80474e-15)
(-0.730445 -3.50325 -1.58323e-14)
(-0.955933 -3.40582 9.20217e-15)
(-1.17908 -3.24863 4.2756e-15)
(-1.42568 -3.1294 5.06752e-15)
(-1.60255 -2.92643 -7.02362e-14)
(-1.74555 -2.68763 -1.97146e-15)
(-1.86333 -2.44544 1.09469e-13)
(-1.91971 -2.17642 -4.37154e-14)
(-1.93848 -1.90354 -1.11831e-13)
(-1.92273 -1.63936 -2.27635e-13)
(-1.86748 -1.3848 -1.98302e-13)
(-1.78713 -1.14869 -1.36902e-13)
(-1.68624 -0.935704 -5.40423e-14)
(-1.572 -0.743619 -1.88756e-13)
(-1.44807 -0.582116 -2.59497e-13)
(-1.38261 -0.463344 -1.28981e-13)
(-1.31751 -0.368145 3.14266e-13)
(-1.25182 -0.28304 2.91968e-13)
(-1.18336 -0.204315 -2.29065e-14)
(-1.11075 -0.128777 -4.37116e-14)
(-1.02364 -0.0563399 -1.41573e-13)
(-0.91231 0.00417685 -8.14401e-14)
(-0.79303 0.0407149 3.75021e-14)
(-0.692556 0.054058 2.88898e-14)
(-0.620047 0.0599169 3.28957e-15)
(-0.567867 0.070371 -1.73477e-14)
(-0.525039 0.0846706 6.45037e-14)
(-0.491552 0.0990804 1.35773e-13)
(-0.469197 0.113626 -7.74469e-15)
(-0.458189 0.130282 2.28064e-14)
(-0.445579 0.149774 4.09276e-14)
(-0.417132 0.18006 -1.51435e-14)
(-0.0946686 0.222887 1.41767e-13)
(0.492298 0.276923 6.27824e-14)
(-0.738529 0.586669 -4.19696e-14)
(-2.93721 0.602601 -2.04159e-14)
(0.244437 -3.46161 1.81797e-14)
(0.398572 -3.09154 2.28875e-14)
(0.529338 -2.58453 2.07505e-15)
(0.625079 -2.19173 1.23983e-13)
(0.668937 -1.79436 -1.86595e-13)
(0.73773 -1.64658 7.49963e-14)
(0.89178 -1.63739 1.49268e-13)
(1.02915 -1.56462 8.68647e-14)
(1.13407 -1.44582 -2.97986e-14)
(1.19485 -1.29387 -3.29459e-14)
(1.22856 -1.13822 2.41972e-14)
(1.23116 -0.983978 3.38698e-14)
(1.20161 -0.833663 -7.86437e-14)
(1.15353 -0.696286 6.31875e-14)
(1.09192 -0.574782 1.40727e-14)
(1.01783 -0.467878 -1.23243e-14)
(0.940919 -0.377491 -5.09766e-14)
(0.86331 -0.302181 -5.10745e-14)
(0.788243 -0.240072 4.10655e-14)
(0.716746 -0.188919 1.22495e-14)
(0.650611 -0.146978 4.38759e-15)
(0.588807 -0.112303 3.97341e-14)
(0.530524 -0.0832504 1.51392e-14)
(0.474606 -0.0584604 -1.84609e-15)
(0.423759 -0.0373458 3.87968e-15)
(0.378863 -0.020151 -2.44426e-15)
(0.337921 -0.00724602 -4.80466e-15)
(0.30137 0.00208481 8.22771e-16)
(0.269443 0.00885016 -3.60043e-16)
(0.242041 0.014005 3.98944e-16)
(0.217931 0.0180532 2.21836e-15)
(0.199908 0.0212463 -2.18739e-15)
(0.186308 0.0237918 -7.98094e-15)
(0.174844 0.0258016 -5.88754e-15)
(0.164413 0.0276319 -3.19838e-15)
(0.156526 0.0296202 -1.71413e-15)
(0.151948 0.0308952 7.3475e-17)
(0.152411 0.0419241 1.8857e-14)
(0.177664 0.0248069 3.27337e-14)
(0.0288388 -3.25382 8.39256e-16)
(-0.178967 -3.24369 2.16069e-15)
(-0.37907 -3.00987 -1.35654e-15)
(-0.653784 -3.12856 -6.27147e-15)
(-0.853463 -3.04967 -1.90383e-14)
(-1.05099 -2.91775 1.52585e-14)
(-1.2721 -2.82537 -1.17929e-14)
(-1.433 -2.6569 -5.25271e-15)
(-1.56574 -2.45617 -2.46365e-14)
(-1.67949 -2.25313 -2.96195e-14)
(-1.73902 -2.02221 1.28744e-14)
(-1.76564 -1.78475 1.34636e-13)
(-1.76178 -1.55198 1.82538e-13)
(-1.72107 -1.32386 3.05466e-14)
(-1.65647 -1.10946 9.28749e-15)
(-1.57157 -0.913236 1.33273e-14)
(-1.47098 -0.736326 -3.63246e-14)
(-1.3616 -0.581829 1.10717e-13)
(-1.29384 -0.454926 9.91426e-14)
(-1.24607 -0.358119 -2.43878e-13)
(-1.19326 -0.27537 -2.61189e-14)
(-1.13532 -0.199372 5.21875e-14)
(-1.07148 -0.12805 -6.41751e-14)
(-0.994173 -0.0609023 7.12982e-14)
(-0.894871 -0.00404559 7.99206e-16)
(-0.786953 0.0333964 -1.27064e-14)
(-0.693206 0.0511101 -3.72299e-14)
(-0.622117 0.0607142 1.55221e-15)
(-0.568602 0.0728066 -5.94301e-17)
(-0.523174 0.087685 3.15353e-14)
(-0.485737 0.102349 1.46884e-14)
(-0.457743 0.117699 -6.5018e-14)
(-0.445657 0.135365 -2.84501e-14)
(-0.441042 0.158969 1.4725e-13)
(-0.476548 0.191734 2.28714e-14)
(-0.523399 0.250088 -1.01667e-13)
(0.265089 0.295652 -3.19758e-14)
(0.499626 0.467506 3.04421e-14)
(-1.78111 0.484492 -1.04471e-14)
(0.202137 -3.06497 4.54541e-15)
(0.340497 -2.75451 -5.32672e-14)
(0.460581 -2.32514 1.45602e-14)
(0.551165 -1.98893 3.0739e-14)
(0.607668 -1.69898 4.89557e-14)
(0.694886 -1.59654 -1.85202e-14)
(0.838844 -1.57342 -2.23538e-14)
(0.964594 -1.49884 -6.60783e-15)
(1.06074 -1.38673 -1.16994e-14)
(1.11969 -1.24722 7.36662e-15)
(1.1562 -1.10615 3.19845e-14)
(1.16541 -0.966281 5.90243e-14)
(1.14538 -0.828223 2.39489e-16)
(1.10816 -0.700389 -1.28312e-13)
(1.05648 -0.584994 2.29289e-14)
(0.991799 -0.481495 6.68892e-14)
(0.922906 -0.392313 5.03831e-14)
(0.851069 -0.316487 2.32074e-14)
(0.780292 -0.253031 -1.69576e-14)
(0.711649 -0.20018 -3.58026e-15)
(0.647144 -0.156501 -1.80274e-14)
(0.586061 -0.120203 -3.31391e-14)
(0.527958 -0.0897371 1.32903e-14)
(0.472013 -0.0638307 1.2592e-14)
(0.421294 -0.0420449 1.93385e-15)
(0.376665 -0.0244336 9.79358e-15)
(0.336077 -0.0110286 2.7693e-15)
(0.299742 -0.00120386 -6.76269e-16)
(0.267883 0.0059201 1.46979e-16)
(0.240472 0.0113156 -5.80479e-16)
(0.216396 0.0155557 1.20067e-15)
(0.197749 0.0188563 1.49916e-15)
(0.184711 0.0214909 3.01467e-15)
(0.173734 0.0235137 2.66366e-15)
(0.163751 0.0253847 -3.61464e-15)
(0.156316 0.0273309 3.83653e-16)
(0.152025 0.0291128 7.27436e-15)
(0.154314 0.0387171 -8.896e-15)
(0.179109 0.0267358 -2.42588e-15)
(0.0107272 -2.89109 3.82986e-15)
(-0.17319 -2.88197 -8.71953e-16)
(-0.349643 -2.69154 -8.00371e-15)
(-0.593143 -2.80089 5.05581e-16)
(-0.77214 -2.73689 9.77739e-15)
(-0.949055 -2.62559 -7.97193e-15)
(-1.14857 -2.55225 1.01889e-15)
(-1.29508 -2.40921 1.67576e-14)
(-1.41921 -2.23911 1.14259e-14)
(-1.52794 -2.06634 2.74213e-14)
(-1.58889 -1.86558 5.75052e-14)
(-1.6218 -1.65731 5.08842e-14)
(-1.627 -1.45024 -1.16776e-13)
(-1.59826 -1.2441 -1.91284e-13)
(-1.54774 -1.04809 3.19102e-14)
(-1.47648 -0.865932 2.51449e-13)
(-1.38911 -0.699951 5.49072e-14)
(-1.29245 -0.551925 -1.46304e-13)
(-1.21284 -0.431426 -2.45896e-14)
(-1.17859 -0.340134 3.07328e-14)
(-1.1361 -0.264182 -6.21629e-14)
(-1.08745 -0.192584 -7.7386e-14)
(-1.03211 -0.12498 7.04458e-15)
(-0.964173 -0.0615918 5.93686e-14)
(-0.87557 -0.00754133 5.28381e-14)
(-0.777989 0.0302249 -2.96822e-15)
(-0.691053 0.0508845 3.13923e-14)
(-0.622607 0.0630711 5.63519e-15)
(-0.56963 0.0759351 5.39684e-14)
(-0.524125 0.0906609 -4.04512e-14)
(-0.485925 0.104981 -1.39855e-13)
(-0.453971 0.120611 -4.52266e-14)
(-0.432224 0.137855 2.53835e-14)
(-0.423147 0.163586 1.47051e-14)
(-0.400111 0.196476 -5.55711e-15)
(-0.585354 0.2483 2.65673e-15)
(-0.350178 0.343953 1.30818e-14)
(0.856284 0.442535 -9.15487e-16)
(-0.551226 0.324574 3.49966e-14)
(0.166127 -2.72587 -9.0511e-15)
(0.291457 -2.46226 -8.91392e-15)
(0.401282 -2.09797 -1.19939e-14)
(0.486785 -1.80927 -2.98756e-14)
(0.551933 -1.59794 3.43857e-14)
(0.650316 -1.52864 -3.7495e-14)
(0.782725 -1.49656 -2.24033e-14)
(0.898617 -1.42302 6.27385e-14)
(0.987991 -1.31918 -2.9044e-14)
(1.04502 -1.19216 6.56908e-14)
(1.0843 -1.06585 6.70322e-14)
(1.09912 -0.940069 4.5292e-14)
(1.08724 -0.814399 2.69945e-14)
(1.05988 -0.696811 4.47796e-14)
(1.01806 -0.588738 -1.28187e-14)
(0.962346 -0.489642 4.34923e-15)
(0.901415 -0.402668 3.21161e-14)
(0.835857 -0.327137 2.34103e-14)
(0.769752 -0.262781 -2.51053e-15)
(0.704448 -0.208409 -4.74866e-14)
(0.642121 -0.162952 -9.57407e-15)
(0.582264 -0.124853 1.12652e-16)
(0.524775 -0.0927721 -2.84357e-14)
(0.469143 -0.0656023 3.14126e-15)
(0.418873 -0.0429921 -3.46496e-15)
(0.374645 -0.0248355 -7.88262e-15)
(0.334455 -0.0108871 6.74327e-16)
(0.298387 -0.000538971 6.48559e-17)
(0.266632 0.00696754 -3.54407e-18)
(0.239205 0.0126075 3.96373e-16)
(0.215128 0.0170272 -1.02217e-15)
(0.195757 0.0203751 -2.21714e-15)
(0.183218 0.0232714 2.06527e-15)
(0.172632 0.0254844 4.49157e-15)
(0.163011 0.0276089 2.05359e-15)
(0.155901 0.0296932 4.16464e-15)
(0.151865 0.0318267 -1.82511e-14)
(0.1555 0.0401821 -1.23773e-14)
(0.179232 0.0307221 2.46333e-14)
(-0.00349896 -2.57811 -3.25062e-15)
(-0.16697 -2.57097 1.00528e-15)
(-0.323823 -2.41547 7.3821e-15)
(-0.540697 -2.51499 1.06807e-14)
(-0.701026 -2.46106 -1.69306e-15)
(-0.859972 -2.36651 1.57167e-15)
(-1.04009 -2.30803 -4.59733e-15)
(-1.17401 -2.18723 -2.90796e-14)
(-1.28889 -2.04213 -2.95391e-14)
(-1.39162 -1.89498 -1.02623e-14)
(-1.45192 -1.72055 -4.73385e-14)
(-1.48876 -1.53869 -1.38677e-14)
(-1.50034 -1.35554 1.08797e-13)
(-1.48077 -1.1706 5.42189e-14)
(-1.44119 -0.992932 -4.19519e-15)
(-1.38136 -0.825862 -1.95349e-13)
(-1.30579 -0.671842 -5.37833e-14)
(-1.21989 -0.53413 1.81406e-13)
(-1.13335 -0.41427 8.73967e-14)
(-1.10987 -0.32588 -4.23671e-14)
(-1.07755 -0.254071 -3.87608e-15)
(-1.03801 -0.186256 4.31035e-14)
(-0.991114 -0.122437 1.16247e-14)
(-0.932238 -0.0628086 -7.97592e-14)
(-0.853788 -0.011428 -1.34796e-13)
(-0.765779 0.0263546 4.03444e-14)
(-0.685567 0.0494961 -7.51503e-15)
(-0.62037 0.0641324 -8.45277e-15)
(-0.568777 0.0779803 -3.0431e-14)
(-0.524404 0.0929381 -2.48125e-14)
(-0.487062 0.107292 4.13568e-14)
(-0.456145 0.123324 1.445e-13)
(-0.428535 0.141159 4.3727e-14)
(-0.421421 0.165268 -1.1241e-13)
(-0.367267 0.204943 8.21088e-15)
(-0.428134 0.23605 -4.19049e-14)
(-0.669736 0.359939 1.72469e-15)
(0.503312 0.469061 -4.64128e-15)
(0.14363 0.1864 2.39253e-14)
(0.136255 -2.43315 8.92066e-15)
(0.249855 -2.20818 3.11096e-14)
(0.350499 -1.89672 -6.73388e-14)
(0.431564 -1.64646 -4.41852e-15)
(0.501091 -1.49327 -1.26189e-13)
(0.604881 -1.44949 5.39806e-15)
(0.726656 -1.41237 3.21356e-14)
(0.834009 -1.34206 -1.25133e-13)
(0.917648 -1.24706 2.28538e-14)
(0.972795 -1.13205 -1.41525e-14)
(1.01373 -1.01937 -5.69229e-14)
(1.03359 -0.907415 -7.28739e-14)
(1.0289 -0.794056 -6.87204e-16)
(1.01029 -0.686917 5.18455e-14)
(0.977356 -0.586799 2.35433e-14)
(0.930201 -0.493192 -2.15251e-14)
(0.876902 -0.409455 -3.00492e-14)
(0.817774 -0.335359 -7.34101e-15)
(0.756676 -0.271146 1.46746e-14)
(0.695017 -0.216078 3.96994e-14)
(0.635176 -0.169515 3.94417e-14)
(0.576932 -0.130178 3.44441e-14)
(0.520255 -0.0969097 -1.40494e-15)
(0.465346 -0.0687745 -3.08514e-14)
(0.415768 -0.0455216 2.80931e-15)
(0.37214 -0.0269417 -8.88078e-15)
(0.332461 -0.0125673 -4.76396e-15)
(0.296776 -0.00178909 -5.57802e-16)
(0.265221 0.0060733 3.1525e-16)
(0.23785 0.0119467 -2.27414e-16)
(0.213839 0.0165339 5.29244e-16)
(0.193712 0.0198992 2.01236e-15)
(0.181689 0.0229392 -1.73891e-15)
(0.171527 0.0251717 -1.93141e-15)
(0.162314 0.0273162 2.05398e-15)
(0.155551 0.0294203 -4.97029e-15)
(0.151863 0.0318419 1.43591e-14)
(0.156601 0.0394467 2.51358e-14)
(0.179058 0.0340093 -6.65667e-14)
(-0.0148373 -2.30649 -6.51712e-16)
(-0.160783 -2.30012 7.32798e-16)
(-0.301146 -2.1721 -6.50784e-16)
(-0.495548 -2.26278 -3.61249e-15)
(-0.64018 -2.21767 6.69845e-15)
(-0.783514 -2.1364 -1.20338e-15)
(-0.946222 -2.08842 1.88901e-15)
(-1.06873 -1.98534 1.67633e-14)
(-1.17514 -1.86107 -1.87053e-14)
(-1.27192 -1.73515 -7.89018e-14)
(-1.33077 -1.58301 -5.23524e-14)
(-1.3695 -1.42341 -6.56892e-14)
(-1.38577 -1.26112 -4.25797e-14)
(-1.374 -1.09549 -7.16407e-14)
(-1.34328 -0.934475 -8.8674e-14)
(-1.29349 -0.781334 7.83665e-14)
(-1.22811 -0.638706 -1.69637e-14)
(-1.1524 -0.509834 -1.37663e-13)
(-1.06823 -0.395105 -5.94504e-14)
(-1.04315 -0.309836 -4.66909e-14)
(-1.02006 -0.241805 -3.29194e-14)
(-0.988676 -0.178525 9.13694e-14)
(-0.949757 -0.118524 -1.10587e-14)
(-0.899431 -0.0624075 -1.90156e-14)