/*--------------------------------*- C++ -*----------------------------------*\
| =========                 |                                                 |
| \\      /  F ield         | OpenFOAM: The Open Source CFD Toolbox           |
|  \\    /   O peration     | Version:  2312                                  |
|   \\  /    A nd           | Website:  www.openfoam.com                      |
|    \\/     M anipulation  |                                                 |
\*---------------------------------------------------------------------------*/
FoamFile
{
    version     2.0;
    format      ascii;
    arch        "LSB;label=32;scalar=64";
    class       volScalarField;
    location    "100";
    object      nut;
}
// * * * * * * * * * * * * * * * * * * * * * * * * * * * * * * * * * * * * * //

dimensions      [0 2 -1 0 0 0 0];

internalField   nonuniform List<scalar> 
10720
(
2.01739e-05
2.31663e-05
2.71881e-05
3.24384e-05
3.93133e-05
4.83154e-05
6.01503e-05
7.52153e-05
9.44011e-05
0.000118527
0.000148917
0.000188111
0.000240398
0.00031179
0.000412412
0.000560712
0.000785569
0.0011513
0.00174369
0.00287325
0.00478225
0.00957657
0.018101
0.0478545
0.0887316
0.10606
0.107945
0.107802
0.108614
0.109219
0.108416
0.106013
0.1025
0.0980704
0.0925375
0.0857815
0.0763803
0.0657361
0.0347587
1.75931e-05
1.53367e-05
1.31429e-05
1.11208e-05
9.24612e-06
7.60109e-06
6.45108e-06
7.85204e-06
1.04766e-05
1.47204e-05
2.14971e-05
3.22008e-05
4.84624e-05
7.19399e-05
0.000103849
0.000146339
0.000204254
0.000287444
0.000414383
0.000616381
0.000959812
0.00154983
0.00268333
0.00477056
0.00949076
0.0188052
0.0422897
0.0778686
0.101632
0.110637
0.113127
0.113786
0.113702
0.113033
0.111879
0.110358
0.108118
0.105667
0.0957745
5.30976e-06
5.21778e-06
5.12749e-06
5.04496e-06
4.94787e-06
4.85235e-06
4.76938e-06
4.6863e-06
4.62251e-06
4.57919e-06
4.55241e-06
4.58591e-06
4.60855e-06
5.12438e-06
7.2144e-06
1.35067e-05
3.36083e-05
8.51495e-05
0.000175819
0.000356266
0.000686059
0.00160759
0.00335245
0.00875334
0.0208082
0.0372459
0.058284
0.0828545
0.107438
0.126476
0.13671
0.140172
0.140156
0.138361
0.135484
0.131745
0.128056
0.121602
0.119745
5.38138e-06
5.48605e-06
5.58265e-06
5.71163e-06
5.84198e-06
5.97424e-06
6.09012e-06
5.99736e-06
5.83652e-06
5.64292e-06
5.4261e-06
5.18858e-06
4.93148e-06
4.65367e-06
4.34049e-06
3.9899e-06
3.5728e-06
3.08611e-06
2.49476e-06
1.80794e-06
1.05228e-06
4.06767e-07
6.92312e-08
4.56034e-09
3.11655e-06
0.000170105
0.00105586
0.00629276
0.0180133
0.0336299
0.0487429
0.0596523
0.0659495
0.0693631
0.0714786
0.0732459
0.0747813
0.0781832
0.0814361
6.19994e-06
6.22154e-06
6.24219e-06
6.26394e-06
6.28919e-06
6.3163e-06
6.34583e-06
6.3787e-06
6.41544e-06
6.4564e-06
6.50343e-06
6.5577e-06
6.62158e-06
6.69779e-06
6.79586e-06
6.9056e-06
6.22323e-06
4.78527e-06
6.20274e-07
1.81287e-07
2.30673e-05
0.000322001
1.60965e-06
3.31214e-06
0.00046201
0.00200636
0.00542519
0.0126489
0.0264701
0.0488781
0.078183
0.108224
0.132168
0.147779
0.157293
0.162847
0.166978
0.166207
0.168694
6.18607e-06
6.17694e-06
6.1699e-06
6.16092e-06
6.15027e-06
6.14025e-06
6.12359e-06
6.12818e-06
6.1412e-06
6.15985e-06
6.18145e-06
6.20567e-06
6.23435e-06
6.26646e-06
6.30292e-06
6.34324e-06
6.38884e-06
6.44062e-06
6.50188e-06
6.57563e-06
6.66857e-06
6.78919e-06
6.94786e-06
7.136e-06
7.26894e-06
6.9934e-06
6.44696e-06
2.83839e-06
0.000193692
0.00117036
0.00399851
0.0092924
0.016755
0.025526
0.034581
0.0431091
0.0503735
0.0567851
0.0669529
6.07822e-06
6.07458e-06
6.07583e-06
6.07878e-06
6.0822e-06
6.08713e-06
6.09389e-06
6.10206e-06
6.11296e-06
6.12658e-06
6.14344e-06
6.16436e-06
6.19034e-06
6.22253e-06
6.26245e-06
6.31624e-06
6.35816e-06
6.31556e-06
5.84438e-06
4.17214e-06
2.30327e-06
1.48651e-08
1.91003e-08
6.51336e-09
6.95189e-05
0.000424342
0.00117044
0.00278171
0.000363697
0.00356552
0.0125331
0.0317118
0.062272
0.0984996
0.131665
0.157371
0.177713
0.192041
0.20012
6.08794e-06
6.10225e-06
6.10996e-06
6.11691e-06
6.11883e-06
6.1226e-06
6.12308e-06
6.11672e-06
6.10873e-06
6.10108e-06
6.09425e-06
6.08856e-06
6.08406e-06
6.08093e-06
6.07897e-06
6.07814e-06
6.07828e-06
6.07917e-06
6.08053e-06
6.08216e-06
6.08366e-06
6.08483e-06
6.08526e-06
6.08649e-06
6.08702e-06
6.10537e-06
6.07203e-06
6.3182e-06
5.41869e-06
9.35611e-06
5.25502e-07
1.83524e-06
0.000330078
0.00140504
0.00383528
0.0083115
0.0150864
0.0241355
0.0424004
6.11779e-06
6.10958e-06
6.10679e-06
6.10532e-06
6.10441e-06
6.10423e-06
6.10469e-06
6.10684e-06
6.11069e-06
6.11626e-06
6.12355e-06
6.13268e-06
6.1439e-06
6.1576e-06
6.1744e-06
6.19587e-06
6.22211e-06
6.24598e-06
6.2743e-06
6.24054e-06
5.533e-06
3.99031e-06
2.90005e-07
8.31141e-09
1.37414e-09
2.0519e-16
0
0
4.80217e-05
0.000795079
0.00286803
0.00133768
0.00876364
0.028947
0.0654399
0.110829
0.154825
0.194144
0.215273
6.12844e-06
6.1362e-06
6.1366e-06
6.13481e-06
6.129e-06
6.12783e-06
6.12724e-06
6.12549e-06
6.12309e-06
6.12037e-06
6.11785e-06
6.11572e-06
6.11423e-06
6.11342e-06
6.11367e-06
6.11494e-06
6.11723e-06
6.12044e-06
6.12447e-06
6.12913e-06
6.13431e-06
6.13988e-06
6.14589e-06
6.15236e-06
6.1603e-06
6.16771e-06
6.18446e-06
6.17036e-06
6.28382e-06
5.81524e-06
7.68279e-06
1.15625e-09
5.40917e-05
0.000336256
0.00028281
0.000229139
0.000828033
0.00205833
0.0150502
6.1303e-06
6.12237e-06
6.11864e-06
6.1157e-06
6.11332e-06
6.11188e-06
6.11125e-06
6.11149e-06
6.11286e-06
6.11537e-06
6.11906e-06
6.12409e-06
6.13047e-06
6.13839e-06
6.1482e-06
6.16049e-06
6.17619e-06
6.19399e-06
6.21581e-06
6.27433e-06
6.33396e-06
6.59698e-06
5.58843e-06
3.05494e-06
8.76127e-07
1.27087e-13
4.60205e-09
1.42023e-09
1.99149e-12
0
0
0.00029979
0.00204846
0.00153565
0.0118791
0.0448752
0.10044
0.168931
0.212918
6.13488e-06
6.13492e-06
6.12964e-06
6.12487e-06
6.1182e-06
6.11874e-06
6.12187e-06
6.12429e-06
6.12517e-06
6.12461e-06
6.12304e-06
6.12094e-06
6.1187e-06
6.11647e-06
6.11469e-06
6.11341e-06
6.11277e-06
6.11277e-06
6.11337e-06
6.11446e-06
6.1159e-06
6.11755e-06
6.11921e-06
6.12097e-06
6.12313e-06
6.12569e-06
6.1285e-06
6.13184e-06
6.13717e-06
6.13544e-06
6.15951e-06
6.17456e-06
5.35485e-06
1.77132e-06
8.61106e-09
2.34535e-05
0.000187549
0.000533979
0.00264126
6.13331e-06
6.1308e-06
6.12922e-06
6.12709e-06
6.12479e-06
6.12257e-06
6.12033e-06
6.11824e-06
6.11657e-06
6.11538e-06
6.11472e-06
6.11462e-06
6.11502e-06
6.11556e-06
6.11687e-06
6.1193e-06
6.12319e-06
6.1281e-06
6.13412e-06
6.14013e-06
6.16132e-06
6.25625e-06
6.56971e-06
6.55327e-06
6.16205e-06
4.5986e-06
2.51359e-06
7.77324e-07
1.06632e-09
5.15303e-09
8.60645e-12
0
0
0.000351672
1.95855e-06
0.00561145
0.038563
0.119584
0.19106
6.1284e-06
6.12151e-06
6.11297e-06
6.1081e-06
6.1027e-06
6.10525e-06
6.11128e-06
6.11669e-06
6.12063e-06
6.12297e-06
6.12398e-06
6.12393e-06
6.12315e-06
6.12182e-06
6.12039e-06
6.11905e-06
6.11807e-06
6.11756e-06
6.11765e-06
6.11834e-06
6.11963e-06
6.12148e-06
6.12387e-06
6.12678e-06
6.13024e-06
6.13434e-06
6.13908e-06
6.14465e-06
6.15037e-06
6.16063e-06
6.157e-06
6.19852e-06
6.2236e-06
5.18261e-06
2.56221e-06
8.2717e-07
1.14786e-08
3.93285e-11
8.80328e-05
6.12127e-06
6.12536e-06
6.12742e-06
6.12824e-06
6.12829e-06
6.12799e-06
6.12717e-06
6.12603e-06
6.12488e-06
6.12383e-06
6.12311e-06
6.12296e-06
6.12348e-06
6.12481e-06
6.1271e-06
6.13038e-06
6.13487e-06
6.14077e-06
6.14702e-06
6.15282e-06
6.1593e-06
6.16031e-06
6.19314e-06
6.34942e-06
6.55584e-06
6.97775e-06
6.96073e-06
6.37662e-06
4.35755e-06
2.25722e-06
4.27937e-09
3.37654e-09
0
0
6.00434e-09
0.00134093
0.00145795
0.0622758
0.15129
6.10935e-06
6.10015e-06
6.09247e-06
6.09018e-06
6.08719e-06
6.09037e-06
6.09732e-06
6.1044e-06
6.11054e-06
6.11529e-06
6.11878e-06
6.12105e-06
6.12227e-06
6.12253e-06
6.12221e-06
6.12148e-06
6.12063e-06
6.11983e-06
6.11926e-06
6.11901e-06
6.11915e-06
6.11969e-06
6.12064e-06
6.12197e-06
6.12362e-06
6.12562e-06
6.12793e-06
6.13044e-06
6.13306e-06
6.13569e-06
6.13834e-06
6.13907e-06
6.14775e-06
6.13961e-06
6.4344e-06
5.88266e-06
3.20549e-06
1.71926e-08
1.30713e-06
6.10154e-06
6.10999e-06
6.11508e-06
6.11892e-06
6.12172e-06
6.12395e-06
6.1254e-06
6.12609e-06
6.1263e-06
6.12606e-06
6.12558e-06
6.12505e-06
6.12462e-06
6.12443e-06
6.12458e-06
6.12512e-06
6.12609e-06
6.12735e-06
6.12935e-06
6.13272e-06
6.13788e-06
6.14395e-06
6.14474e-06
6.16065e-06
6.19464e-06
6.33683e-06
6.59399e-06
6.95809e-06
7.22057e-06
7.2868e-06
5.13463e-06
1.35527e-06
1.55033e-08
1.09456e-10
0
0
0.000783134
0.021406
0.103398
6.08812e-06
6.08143e-06
6.07759e-06
6.07842e-06
6.07699e-06
6.07921e-06
6.08508e-06
6.09195e-06
6.09864e-06
6.10457e-06
6.10971e-06
6.11387e-06
6.11702e-06
6.11914e-06
6.12045e-06
6.12106e-06
6.1212e-06
6.12102e-06
6.12075e-06
6.12053e-06
6.12049e-06
6.12071e-06
6.12131e-06
6.12231e-06
6.12377e-06
6.12578e-06
6.12836e-06
6.13152e-06
6.13527e-06
6.1396e-06
6.14477e-06
6.15016e-06
6.15518e-06
6.15457e-06
6.20847e-06
6.30477e-06
6.72127e-06
4.33327e-06
2.7044e-09
6.08264e-06
6.09175e-06
6.09808e-06
6.10369e-06
6.10843e-06
6.11273e-06
6.11641e-06
6.11935e-06
6.12167e-06
6.12337e-06
6.12454e-06
6.12536e-06
6.12595e-06
6.12648e-06
6.12711e-06
6.12799e-06
6.12928e-06
6.13113e-06
6.13353e-06
6.13628e-06
6.13949e-06
6.1439e-06
6.14813e-06
6.14987e-06
6.14853e-06
6.14994e-06
6.18739e-06
6.29012e-06
6.53727e-06
6.87868e-06
7.70572e-06
7.10932e-06
4.31924e-06
4.9852e-08
4.95456e-10
0
3.61229e-10
0.000142253
0.0608744
6.07305e-06
6.07165e-06
6.07256e-06
6.07555e-06
6.074e-06
6.07436e-06
6.07781e-06
6.08285e-06
6.08848e-06
6.09408e-06
6.09956e-06
6.10456e-06
6.1089e-06
6.11245e-06
6.11526e-06
6.1173e-06
6.1187e-06
6.11958e-06
6.12008e-06
6.12035e-06
6.12053e-06
6.12074e-06
6.12112e-06
6.12173e-06
6.12263e-06
6.12392e-06
6.12565e-06
6.12783e-06
6.13045e-06
6.13352e-06
6.13691e-06
6.14104e-06
6.14453e-06
6.15216e-06
6.13667e-06
6.26849e-06
5.9198e-06
8.68752e-06
5.9443e-07
6.07133e-06
6.07781e-06
6.08335e-06
6.08883e-06
6.09391e-06
6.0989e-06
6.10372e-06
6.10806e-06
6.11199e-06
6.11539e-06
6.11824e-06
6.1206e-06
6.12251e-06
6.12407e-06
6.12541e-06
6.12662e-06
6.12786e-06
6.1292e-06
6.1308e-06
6.13284e-06
6.13555e-06
6.13916e-06
6.14402e-06
6.14934e-06
6.15391e-06
6.15344e-06
6.14958e-06
6.14661e-06
6.17665e-06
6.22941e-06
6.57025e-06
7.12437e-06
7.76212e-06
6.32437e-06
1.5152e-07
3.70397e-11
0
0.000751147
0.034252
6.06836e-06
6.07217e-06
6.07661e-06
6.08026e-06
6.07775e-06
6.076e-06
6.07663e-06
6.07902e-06
6.08249e-06
6.08654e-06
6.09107e-06
6.09572e-06
6.10023e-06
6.10438e-06
6.10806e-06
6.11115e-06
6.11369e-06
6.11566e-06
6.11717e-06
6.11829e-06
6.11915e-06
6.11983e-06
6.12049e-06
6.12123e-06
6.12213e-06
6.12331e-06
6.12486e-06
6.12685e-06
6.1293e-06
6.13228e-06
6.13577e-06
6.14004e-06
6.14409e-06
6.15203e-06
6.14257e-06
6.21637e-06
5.94975e-06
7.12825e-06
4.51218e-06
6.06997e-06
6.07221e-06
6.07558e-06
6.07938e-06
6.08328e-06
6.08751e-06
6.09204e-06
6.09654e-06
6.10101e-06
6.10529e-06
6.10925e-06
6.11286e-06
6.11609e-06
6.11893e-06
6.12145e-06
6.12371e-06
6.12582e-06
6.12788e-06
6.13002e-06
6.13227e-06
6.13469e-06
6.13752e-06
6.14112e-06
6.1458e-06
6.1516e-06
6.1576e-06
6.1618e-06
6.16143e-06
6.15719e-06
6.14444e-06
6.15227e-06
6.32257e-06
6.59473e-06
8.38944e-06
7.27642e-06
6.11348e-09
2.86512e-15
0.0003877
0.0178099
6.07313e-06
6.07981e-06
6.08543e-06
6.08847e-06
6.08537e-06
6.08214e-06
6.0805e-06
6.08038e-06
6.08141e-06
6.08333e-06
6.0861e-06
6.08945e-06
6.09313e-06
6.0969e-06
6.10064e-06
6.10412e-06
6.10728e-06
6.11003e-06
6.11239e-06
6.11434e-06
6.11596e-06
6.11729e-06
6.11847e-06
6.11957e-06
6.12069e-06
6.12194e-06
6.1234e-06
6.12515e-06
6.12725e-06
6.12976e-06
6.13272e-06
6.13619e-06
6.14012e-06
6.14545e-06
6.14759e-06
6.16653e-06
6.12857e-06
6.24402e-06
6.2467e-06
6.07647e-06
6.0749e-06
6.07584e-06
6.07727e-06
6.07916e-06
6.08166e-06
6.08474e-06
6.08821e-06
6.09205e-06
6.09609e-06
6.10018e-06
6.10421e-06
6.10809e-06
6.11174e-06
6.11516e-06
6.11831e-06
6.12126e-06
6.12404e-06
6.12672e-06
6.12942e-06
6.13221e-06
6.13517e-06
6.13849e-06
6.14245e-06
6.14733e-06
6.15337e-06
6.1604e-06
6.16765e-06
6.1726e-06
6.17409e-06
6.15431e-06
6.15908e-06
6.12425e-06
6.42902e-06
9.29172e-06
4.47315e-06
2.87077e-12
0.000174479
0.00803258
6.08283e-06
6.08921e-06
6.09374e-06
6.09572e-06
6.09299e-06
6.0895e-06
6.08683e-06
6.0851e-06
6.08425e-06
6.08421e-06
6.08505e-06
6.08666e-06
6.08891e-06
6.09162e-06
6.09464e-06
6.09778e-06
6.10091e-06
6.10389e-06
6.10666e-06
6.10915e-06
6.11137e-06
6.11332e-06
6.11508e-06
6.11671e-06
6.11827e-06
6.11984e-06
6.12152e-06
6.12337e-06
6.12548e-06
6.1279e-06
6.13072e-06
6.13399e-06
6.13781e-06
6.14205e-06
6.14758e-06
6.15047e-06
6.17159e-06
6.11604e-06
6.3122e-06
6.08608e-06
6.0826e-06
6.0818e-06
6.08118e-06
6.08107e-06
6.08161e-06
6.08279e-06
6.08459e-06
6.08703e-06
6.08998e-06
6.0933e-06
6.0969e-06
6.10066e-06
6.10445e-06
6.10823e-06
6.11191e-06
6.11548e-06
6.11893e-06
6.12228e-06
6.12563e-06
6.12901e-06
6.1324e-06
6.13589e-06
6.13966e-06
6.14395e-06
6.14906e-06
6.15527e-06
6.16289e-06
6.1713e-06
6.18087e-06
6.18662e-06
6.17578e-06
6.19169e-06
5.91191e-06
6.73123e-06
1.15405e-05
1.00191e-08
3.47348e-05
0.0029247
6.0919e-06
6.09551e-06
6.09773e-06
6.09902e-06
6.09745e-06
6.09496e-06
6.09263e-06
6.09059e-06
6.0889e-06
6.08765e-06
6.08704e-06
6.08711e-06
6.08785e-06
6.08919e-06
6.09105e-06
6.09329e-06
6.09579e-06
6.09843e-06
6.10109e-06
6.10369e-06
6.10618e-06
6.10851e-06
6.1107e-06
6.11279e-06
6.11479e-06
6.11677e-06
6.11878e-06
6.12087e-06
6.1231e-06
6.12556e-06
6.1283e-06
6.13139e-06
6.13494e-06
6.1389e-06
6.14404e-06
6.14739e-06
6.16208e-06
6.14226e-06
6.20633e-06
6.09377e-06
6.09068e-06
6.08933e-06
6.08763e-06
6.08628e-06
6.08538e-06
6.08495e-06
6.08514e-06
6.08601e-06
6.08751e-06
6.08958e-06
6.09216e-06
6.09514e-06
6.09842e-06
6.10193e-06
6.10556e-06
6.10928e-06
6.11302e-06
6.11676e-06
6.12055e-06
6.12447e-06
6.12846e-06
6.13246e-06
6.13651e-06
6.14077e-06
6.14549e-06
6.15096e-06
6.15754e-06
6.1655e-06
6.17434e-06
6.18869e-06
6.18804e-06
6.22369e-06
6.17058e-06
5.56146e-06
1.00867e-05
1.92914e-06
5.02466e-07
0.000789047
6.0963e-06
6.0963e-06
6.09628e-06
6.09762e-06
6.09745e-06
6.09666e-06
6.09565e-06
6.09442e-06
6.093e-06
6.09157e-06
6.09034e-06
6.08949e-06
6.08911e-06
6.08925e-06
6.08992e-06
6.09107e-06
6.09265e-06
6.09454e-06
6.09668e-06
6.09895e-06
6.1013e-06
6.10365e-06
6.10599e-06
6.10832e-06
6.11063e-06
6.11294e-06
6.11527e-06
6.11765e-06
6.12013e-06
6.12276e-06
6.1256e-06
6.12872e-06
6.1322e-06
6.1361e-06
6.14065e-06
6.14539e-06
6.15271e-06
6.15674e-06
6.16956e-06
6.09642e-06
6.09532e-06
6.09454e-06
6.09295e-06
6.09139e-06
6.08999e-06
6.08877e-06
6.08796e-06
6.08767e-06
6.08792e-06
6.08874e-06
6.09013e-06
6.09205e-06
6.09443e-06
6.09722e-06
6.10035e-06
6.10375e-06
6.10735e-06
6.11113e-06
6.11504e-06
6.11921e-06
6.1236e-06
6.12811e-06
6.13261e-06
6.13713e-06
6.14187e-06
6.14709e-06
6.15305e-06
6.16035e-06
6.1679e-06
6.18004e-06
6.19083e-06
6.18849e-06
6.34537e-06
5.6645e-06
7.12814e-06
8.4497e-06
1.61797e-09
0.000121026
6.09488e-06
6.09215e-06
6.09084e-06
6.0926e-06
6.0936e-06
6.09444e-06
6.09507e-06
6.09525e-06
6.09489e-06
6.09412e-06
6.09316e-06
6.09219e-06
6.09136e-06
6.0908e-06
6.09061e-06
6.09082e-06
6.09146e-06
6.09248e-06
6.09386e-06
6.09551e-06
6.0974e-06
6.09944e-06
6.10162e-06
6.1039e-06
6.10627e-06
6.10872e-06
6.11124e-06
6.11384e-06
6.11654e-06
6.11936e-06
6.12235e-06
6.12556e-06
6.12908e-06
6.13297e-06
6.13733e-06
6.14233e-06
6.14784e-06
6.15597e-06
6.16258e-06
6.0937e-06
6.09498e-06
6.09541e-06
6.09481e-06
6.09396e-06
6.093e-06
6.0919e-06
6.09091e-06
6.09017e-06
6.08974e-06
6.08973e-06
6.09018e-06
6.09112e-06
6.09255e-06
6.09446e-06
6.0968e-06
6.09955e-06
6.10266e-06
6.10609e-06
6.10978e-06
6.11384e-06
6.11831e-06
6.12307e-06
6.12796e-06
6.13285e-06
6.13781e-06
6.14305e-06
6.14877e-06
6.15557e-06
6.16302e-06
6.1715e-06
6.18903e-06
6.16897e-06
6.30517e-06
6.10641e-06
5.59975e-06
1.18288e-05
3.37139e-09
6.09155e-08
6.08924e-06
6.0856e-06
6.08423e-06
6.08623e-06
6.08781e-06
6.08965e-06
6.09153e-06
6.09306e-06
6.09397e-06
6.09432e-06
6.09422e-06
6.09378e-06
6.09317e-06
6.09253e-06
6.092e-06
6.09168e-06
6.09166e-06
6.09195e-06
6.09259e-06
6.09355e-06
6.09481e-06
6.09633e-06
6.09809e-06
6.10007e-06
6.10226e-06
6.10462e-06
6.10714e-06
6.1098e-06
6.1126e-06
6.11556e-06
6.11868e-06
6.12201e-06
6.12562e-06
6.12957e-06
6.13394e-06
6.13887e-06
6.1443e-06
6.15171e-06
6.15984e-06
6.08763e-06
6.09059e-06
6.09223e-06
6.09293e-06
6.09322e-06
6.09324e-06
6.09292e-06
6.09245e-06
6.09195e-06
6.09149e-06
6.09121e-06
6.09119e-06
6.09151e-06
6.09221e-06
6.09334e-06
6.0949e-06
6.0969e-06
6.09932e-06
6.10217e-06
6.10538e-06
6.10904e-06
6.11322e-06
6.11789e-06
6.1229e-06
6.12805e-06
6.13328e-06
6.13869e-06
6.14442e-06
6.15081e-06
6.15845e-06
6.16501e-06
6.18216e-06
6.17474e-06
6.21156e-06
6.3629e-06
5.37084e-06
1.03376e-05
3.55551e-07
1.59957e-09
6.08246e-06
6.07966e-06
6.07911e-06
6.08094e-06
6.08236e-06
6.08432e-06
6.08666e-06
6.08897e-06
6.09086e-06
6.09224e-06
6.09314e-06
6.09357e-06
6.09362e-06
6.0934e-06
6.09305e-06
6.09267e-06
6.09239e-06
6.09227e-06
6.09239e-06
6.09277e-06
6.09344e-06
6.09439e-06
6.09563e-06
6.09716e-06
6.09897e-06
6.10105e-06
6.10337e-06
6.10591e-06
6.10865e-06
6.1116e-06
6.11476e-06
6.11815e-06
6.12182e-06
6.12583e-06
6.13026e-06
6.13518e-06
6.14071e-06
6.14751e-06
6.1564e-06
6.08128e-06
6.08466e-06
6.08698e-06
6.08866e-06
6.08996e-06
6.091e-06
6.09164e-06
6.09199e-06
6.09214e-06
6.09213e-06
6.09208e-06
6.09208e-06
6.09221e-06
6.09257e-06
6.09322e-06
6.0942e-06
6.09557e-06
6.09734e-06
6.09954e-06
6.10215e-06
6.10522e-06
6.10886e-06
6.11312e-06
6.11792e-06
6.12307e-06
6.12844e-06
6.13404e-06
6.13991e-06
6.14611e-06
6.15368e-06
6.16011e-06
6.17277e-06
6.18386e-06
6.15938e-06
6.38266e-06
5.70778e-06
7.58496e-06
4.19606e-06
2.78069e-07
6.07742e-06
6.07639e-06
6.07691e-06
6.07822e-06
6.07893e-06
6.08027e-06
6.08227e-06
6.0846e-06
6.08682e-06
6.08878e-06
6.09042e-06
6.09164e-06
6.09245e-06
6.09289e-06
6.09304e-06
6.09298e-06
6.09283e-06
6.09267e-06
6.09258e-06
6.09264e-06
6.09289e-06
6.09338e-06
6.09414e-06
6.0952e-06
6.09656e-06
6.09824e-06
6.10021e-06
6.10246e-06
6.105e-06
6.10779e-06
6.11086e-06
6.11419e-06
6.11783e-06
6.12185e-06
6.12631e-06
6.13125e-06
6.13685e-06
6.14346e-06
6.15244e-06
6.07714e-06
6.07977e-06
6.08203e-06
6.08403e-06
6.08582e-06
6.08745e-06
6.08881e-06
6.08989e-06
6.09073e-06
6.09133e-06
6.09177e-06
6.09212e-06
6.09244e-06
6.09282e-06
6.09333e-06
6.09403e-06
6.095e-06
6.09629e-06
6.09794e-06
6.09998e-06
6.10245e-06
6.10545e-06
6.10908e-06
6.11337e-06
6.11821e-06
6.12349e-06
6.12914e-06
6.13515e-06
6.14138e-06
6.14872e-06
6.15581e-06
6.16414e-06
6.18491e-06
6.15032e-06
6.30029e-06
6.08402e-06
6.15987e-06
7.40048e-06
2.2497e-06
6.07564e-06
6.07631e-06
6.0776e-06
6.07831e-06
6.07815e-06
6.0785e-06
6.07962e-06
6.08133e-06
6.08325e-06
6.08518e-06
6.08706e-06
6.08872e-06
6.09008e-06
6.09112e-06
6.09184e-06
6.09227e-06
6.09249e-06
6.09256e-06
6.09256e-06
6.09256e-06
6.09265e-06
6.09287e-06
6.09329e-06
6.09396e-06
6.09492e-06
6.09619e-06
6.09777e-06
6.09967e-06
6.10188e-06
6.1044e-06
6.10725e-06
6.11041e-06
6.11391e-06
6.11784e-06
6.12224e-06
6.12717e-06
6.13279e-06
6.13937e-06
6.14821e-06
6.07625e-06
6.07749e-06
6.0791e-06
6.08071e-06
6.08236e-06
6.08403e-06
6.08562e-06
6.08705e-06
6.08834e-06
6.08943e-06
6.09035e-06
6.09113e-06
6.0918e-06
6.09242e-06
6.09306e-06
6.09377e-06
6.09462e-06
6.09566e-06
6.09698e-06
6.0986e-06
6.10058e-06
6.10299e-06
6.10595e-06
6.10958e-06
6.11385e-06
6.11875e-06
6.1242e-06
6.13019e-06
6.13649e-06
6.1436e-06
6.15134e-06
6.15742e-06
6.17888e-06
6.15927e-06
6.21612e-06
6.29967e-06
5.75792e-06
7.48464e-06
5.01567e-06
6.077e-06
6.07861e-06
6.08006e-06
6.08037e-06
6.07952e-06
6.07896e-06
6.07911e-06
6.0799e-06
6.08108e-06
6.08251e-06
6.08412e-06
6.08575e-06
6.08728e-06
6.08863e-06
6.08975e-06
6.09062e-06
6.09125e-06
6.09168e-06
6.09194e-06
6.09211e-06
6.09225e-06
6.09242e-06
6.0927e-06
6.09315e-06
6.09383e-06
6.09477e-06
6.09599e-06
6.09753e-06
6.09938e-06
6.10157e-06
6.10411e-06
6.107e-06
6.11027e-06
6.114e-06
6.11824e-06
6.12307e-06
6.12863e-06
6.13518e-06
6.14388e-06
6.07809e-06
6.07796e-06
6.07867e-06
6.0795e-06
6.08056e-06
6.08181e-06
6.08314e-06
6.0845e-06
6.08584e-06
6.08712e-06
6.08831e-06
6.08941e-06
6.0904e-06
6.09132e-06
6.0922e-06
6.09307e-06
6.09399e-06
6.09502e-06
6.09621e-06
6.0976e-06
6.09928e-06
6.10126e-06
6.10366e-06
6.10662e-06
6.11022e-06
6.11452e-06
6.11952e-06
6.12524e-06
6.13147e-06
6.13837e-06
6.14642e-06
6.15205e-06
6.16999e-06
6.16881e-06
6.16348e-06
6.36183e-06
5.81028e-06
6.74999e-06
6.57128e-06
6.08015e-06
6.08178e-06
6.08287e-06
6.08305e-06
6.08193e-06
6.08085e-06
6.08026e-06
6.08021e-06
6.08057e-06
6.08127e-06
6.08229e-06
6.08352e-06
6.08483e-06
6.08614e-06
6.08738e-06
6.08847e-06
6.0894e-06
6.09013e-06
6.0907e-06
6.09112e-06
6.09145e-06
6.09173e-06
6.09202e-06
6.09241e-06
6.09295e-06
6.09369e-06
6.09466e-06
6.09589e-06
6.09743e-06
6.09928e-06
6.10148e-06
6.10405e-06
6.10702e-06
6.11045e-06
6.11443e-06
6.11904e-06
6.12443e-06
6.13087e-06
6.13944e-06
6.08122e-06
6.08025e-06
6.08021e-06
6.08023e-06
6.08057e-06
6.08119e-06
6.08199e-06
6.08294e-06
6.08402e-06
6.08516e-06
6.08633e-06
6.0875e-06
6.08864e-06
6.08975e-06
6.09083e-06
6.09189e-06
6.09296e-06
6.09408e-06
6.09529e-06
6.09663e-06
6.09816e-06
6.0999e-06
6.10192e-06
6.10436e-06
6.10732e-06
6.11095e-06
6.11534e-06
6.12055e-06
6.12649e-06
6.13311e-06
6.14112e-06
6.14716e-06
6.16092e-06
6.17293e-06
6.14041e-06
6.33657e-06
5.98878e-06
6.21243e-06
6.91686e-06
6.08341e-06
6.08434e-06
6.08482e-06
6.0851e-06
6.08415e-06
6.08301e-06
6.08213e-06
6.08158e-06
6.08133e-06
6.08137e-06
6.08174e-06
6.08239e-06
6.08325e-06
6.08425e-06
6.08531e-06
6.08637e-06
6.08736e-06
6.08826e-06
6.08903e-06
6.08967e-06
6.0902e-06
6.09065e-06
6.09106e-06
6.09151e-06
6.09204e-06
6.09271e-06
6.09354e-06
6.09458e-06
6.09587e-06
6.09744e-06
6.09934e-06
6.10159e-06
6.10423e-06
6.10732e-06
6.11096e-06
6.11525e-06
6.12035e-06
6.12654e-06
6.13489e-06
6.08407e-06
6.08297e-06
6.08259e-06
6.08207e-06
6.08186e-06
6.08192e-06
6.08215e-06
6.08259e-06
6.08323e-06
6.08402e-06
6.08494e-06
6.08595e-06
6.08703e-06
6.08814e-06
6.08928e-06
6.09044e-06
6.09162e-06
6.09284e-06
6.09412e-06
6.0955e-06
6.097e-06
6.09865e-06
6.10048e-06
6.10259e-06
6.10507e-06
6.1081e-06
6.11183e-06
6.11639e-06
6.12182e-06
6.128e-06
6.13568e-06
6.14225e-06
6.15259e-06
6.17161e-06
6.13542e-06
6.2799e-06
6.14759e-06
5.98057e-06
6.71941e-06
6.08544e-06
6.08542e-06
6.08536e-06
6.0858e-06
6.08528e-06
6.08446e-06
6.08372e-06
6.0831e-06
6.08259e-06
6.08225e-06
6.08214e-06
6.08228e-06
6.08263e-06
6.08319e-06
6.08391e-06
6.08472e-06
6.08558e-06
6.08644e-06
6.08725e-06
6.088e-06
6.08867e-06
6.08926e-06
6.08981e-06
6.09036e-06
6.09096e-06
6.09164e-06
6.09244e-06
6.09338e-06
6.09452e-06
6.0959e-06
6.09756e-06
6.09954e-06
6.10187e-06
6.10463e-06
6.10792e-06
6.11184e-06
6.11658e-06
6.12241e-06
6.13038e-06
6.08559e-06
6.08497e-06
6.08466e-06
6.08402e-06
6.08359e-06
6.08332e-06
6.08316e-06
6.08318e-06
6.0834e-06
6.08379e-06
6.08435e-06
6.08507e-06
6.08591e-06
6.08687e-06
6.08791e-06
6.08903e-06
6.09021e-06
6.09146e-06
6.09278e-06
6.09419e-06
6.0957e-06
6.09733e-06
6.0991e-06
6.10104e-06
6.10323e-06
6.10582e-06
6.10899e-06
6.1129e-06
6.11768e-06
6.12328e-06
6.13039e-06
6.1373e-06
6.1452e-06
6.16647e-06
6.13857e-06
6.22363e-06
6.24158e-06
5.95039e-06
6.42085e-06
6.08572e-06
6.0849e-06
6.08454e-06
6.08511e-06
6.08506e-06
6.08472e-06
6.08437e-06
6.08401e-06
6.0836e-06
6.0832e-06
6.0829e-06
6.08273e-06
6.08272e-06
6.08289e-06
6.08323e-06
6.08371e-06
6.08431e-06
6.08498e-06
6.08569e-06
6.08639e-06
6.08708e-06
6.08773e-06
6.08836e-06
6.089e-06
6.08968e-06
6.09042e-06
6.09124e-06
6.09217e-06
6.09324e-06
6.0945e-06
6.09599e-06
6.09776e-06
6.09985e-06
6.10233e-06
6.10529e-06
6.10885e-06
6.11319e-06
6.11859e-06
6.12606e-06
6.08548e-06
6.08562e-06
6.08567e-06
6.08526e-06
6.08492e-06
6.08463e-06
6.08433e-06
6.08415e-06
6.0841e-06
6.08418e-06
6.08443e-06
6.08483e-06
6.0854e-06
6.0861e-06
6.08695e-06
6.08791e-06
6.08899e-06
6.09016e-06
6.09144e-06
6.09283e-06
6.09432e-06
6.09594e-06
6.09768e-06
6.09955e-06
6.10159e-06
6.1039e-06
6.10665e-06
6.11e-06
6.11416e-06
6.11912e-06
6.1255e-06
6.13246e-06
6.13876e-06
6.15909e-06
6.1437e-06
6.18064e-06
6.27349e-06
6.017e-06
6.19356e-06
6.08454e-06
6.08336e-06
6.08296e-06
6.08352e-06
6.08377e-06
6.08385e-06
6.08392e-06
6.08396e-06
6.08387e-06
6.08368e-06
6.08345e-06
6.08324e-06
6.08308e-06
6.08302e-06
6.08308e-06
6.08327e-06
6.08358e-06
6.084e-06
6.08451e-06
6.08507e-06
6.08567e-06
6.08628e-06
6.08691e-06
6.08757e-06
6.08829e-06
6.08908e-06
6.08993e-06
6.09086e-06
6.09192e-06
6.09312e-06
6.09451e-06
6.09614e-06
6.09805e-06
6.1003e-06
6.10298e-06
6.10622e-06
6.11017e-06
6.11511e-06
6.122e-06
6.08417e-06
6.08498e-06
6.08548e-06
6.08546e-06
6.0854e-06
6.08529e-06
6.08509e-06
6.08492e-06
6.08481e-06
6.08476e-06
6.08482e-06
6.08502e-06
6.08534e-06
6.08581e-06
6.08643e-06
6.08719e-06
6.08808e-06
6.08911e-06
6.09028e-06
6.09157e-06
6.09299e-06
6.09454e-06
6.09623e-06
6.09805e-06
6.1e-06
6.10215e-06
6.10462e-06
6.10756e-06
6.11118e-06
6.11552e-06
6.1211e-06
6.12786e-06
6.13322e-06
6.15077e-06
6.14759e-06
6.15329e-06
6.26342e-06
6.10746e-06
6.07896e-06
6.08274e-06
6.08171e-06
6.0814e-06
6.08179e-06
6.08209e-06
6.08235e-06
6.0827e-06
6.08308e-06
6.08333e-06
6.08344e-06
6.08346e-06
6.0834e-06
6.0833e-06
6.0832e-06
6.08314e-06
6.08315e-06
6.08325e-06
6.08344e-06
6.08373e-06
6.08411e-06
6.08455e-06
6.08505e-06
6.0856e-06
6.08622e-06
6.08692e-06
6.0877e-06
6.08856e-06
6.0895e-06
6.09055e-06
6.09172e-06
6.09306e-06
6.0946e-06
6.09638e-06
6.09846e-06
6.10093e-06
6.10388e-06
6.10749e-06
6.11198e-06
6.11825e-06
6.0825e-06
6.08364e-06
6.08444e-06
6.08478e-06
6.08501e-06
6.08516e-06
6.08518e-06
6.08516e-06
6.08514e-06
6.08513e-06
6.08517e-06
6.08529e-06
6.08549e-06
6.08581e-06
6.08625e-06
6.08682e-06
6.08753e-06
6.08838e-06
6.08938e-06
6.09053e-06
6.09182e-06
6.09326e-06
6.09485e-06
6.09658e-06
6.09844e-06
6.10048e-06
6.10278e-06
6.10543e-06
6.10861e-06
6.11242e-06
6.11723e-06
6.12356e-06
6.12845e-06
6.14248e-06
6.14878e-06
6.13917e-06
6.23269e-06
6.17977e-06
6.06138e-06
6.08127e-06
6.08073e-06
6.08054e-06
6.08063e-06
6.0807e-06
6.08088e-06
6.08128e-06
6.0818e-06
6.08226e-06
6.08263e-06
6.08291e-06
6.08307e-06
6.08314e-06
6.08314e-06
6.08311e-06
6.08308e-06
6.08308e-06
6.08314e-06
6.08326e-06
6.08346e-06
6.08374e-06
6.08409e-06
6.08452e-06
6.08504e-06
6.08566e-06
6.08639e-06
6.08721e-06
6.08813e-06
6.08916e-06
6.09031e-06
6.0916e-06
6.09308e-06
6.09477e-06
6.09673e-06
6.09903e-06
6.10177e-06
6.10508e-06
6.1092e-06
6.11484e-06
6.08132e-06
6.08236e-06
6.08323e-06
6.08373e-06
6.08414e-06
6.08447e-06
6.08469e-06
6.08486e-06
6.08501e-06
6.08513e-06
6.08526e-06
6.08542e-06
6.08562e-06
6.08588e-06
6.08623e-06
6.08668e-06
6.08724e-06
6.08794e-06
6.08878e-06
6.08976e-06
6.09089e-06
6.09218e-06
6.09362e-06
6.09521e-06
6.09695e-06
6.09888e-06
6.10104e-06
6.10349e-06
6.10635e-06
6.10975e-06
6.11387e-06
6.1196e-06
6.12432e-06
6.13485e-06
6.14696e-06
6.13409e-06
6.19751e-06
6.21837e-06
6.09929e-06
6.08078e-06
6.08078e-06
6.08063e-06
6.08039e-06
6.0801e-06
6.07999e-06
6.08019e-06
6.08063e-06
6.08112e-06
6.08159e-06
6.08202e-06
6.08236e-06
6.08261e-06
6.08276e-06
6.08284e-06
6.08287e-06
6.08287e-06
6.08288e-06
6.08292e-06
6.08301e-06
6.08316e-06
6.08338e-06
6.08367e-06
6.08407e-06
6.08459e-06
6.08523e-06
6.08598e-06
6.08684e-06
6.08781e-06
6.08891e-06
6.09016e-06
6.09157e-06
6.09319e-06
6.09505e-06
6.09722e-06
6.09979e-06
6.10288e-06
6.10668e-06
6.11176e-06
6.0811e-06
6.08174e-06
6.08245e-06
6.0829e-06
6.0833e-06
6.08368e-06
6.08399e-06
6.08429e-06
6.08458e-06
6.08484e-06
6.08509e-06
6.08534e-06
6.0856e-06
6.08588e-06
6.08622e-06
6.08662e-06
6.0871e-06
6.08769e-06
6.0884e-06
6.08923e-06
6.09021e-06
6.09134e-06
6.0926e-06
6.09402e-06
6.0956e-06
6.09738e-06
6.0994e-06
6.10168e-06
6.1043e-06
6.10738e-06
6.11097e-06
6.116e-06
6.1207e-06
6.12829e-06
6.14258e-06
6.13378e-06
6.16759e-06
6.2253e-06
6.14973e-06
6.08133e-06
6.08167e-06
6.08149e-06
6.08099e-06
6.08034e-06
6.07987e-06
6.07977e-06
6.07996e-06
6.08029e-06
6.08069e-06
6.08112e-06
6.08152e-06
6.08186e-06
6.08213e-06
6.08232e-06
6.08245e-06
6.08252e-06
6.08256e-06
6.08259e-06
6.08263e-06
6.0827e-06
6.08282e-06
6.08302e-06
6.08331e-06
6.08372e-06
6.08425e-06
6.0849e-06
6.08567e-06
6.08656e-06
6.08759e-06
6.08877e-06
6.09012e-06
6.09165e-06
6.09343e-06
6.09549e-06
6.09792e-06
6.10082e-06
6.10437e-06
6.10897e-06
6.08178e-06
6.08196e-06
6.08241e-06
6.08264e-06
6.0829e-06
6.08319e-06
6.08348e-06
6.0838e-06
6.08414e-06
6.08447e-06
6.0848e-06
6.08513e-06
6.08545e-06
6.08579e-06
6.08615e-06
6.08655e-06
6.087e-06
6.08753e-06
6.08815e-06
6.08888e-06
6.08973e-06
6.09071e-06
6.09181e-06
6.09304e-06
6.09443e-06
6.09602e-06
6.09787e-06
6.09998e-06
6.1024e-06
6.10522e-06
6.10843e-06
6.11277e-06
6.11743e-06
6.12293e-06
6.13655e-06
6.13473e-06
6.1469e-06
6.21101e-06
6.18664e-06
6.0825e-06
6.08286e-06
6.08262e-06
6.08202e-06
6.08115e-06
6.0804e-06
6.07999e-06
6.07988e-06
6.07997e-06
6.08017e-06
6.08047e-06
6.0808e-06
6.08113e-06
6.08143e-06
6.08168e-06
6.08187e-06
6.08201e-06
6.0821e-06
6.08217e-06
6.08221e-06
6.08227e-06
6.08234e-06
6.08247e-06
6.08268e-06
6.08299e-06
6.08343e-06
6.08398e-06
6.08465e-06
6.08545e-06
6.08639e-06
6.08748e-06
6.08874e-06
6.09019e-06
6.09187e-06
6.09382e-06
6.09612e-06
6.09885e-06
6.10221e-06
6.1064e-06
6.08291e-06
6.0828e-06
6.08299e-06
6.08298e-06
6.08305e-06
6.0832e-06
6.08338e-06
6.08363e-06
6.08393e-06
6.08424e-06
6.08458e-06
6.08492e-06
6.08527e-06
6.08564e-06
6.08602e-06
6.08643e-06
6.08688e-06
6.08739e-06
6.08796e-06
6.08862e-06
6.08938e-06
6.09025e-06
6.09121e-06
6.09227e-06
6.09347e-06
6.09486e-06
6.0965e-06
6.09841e-06
6.10063e-06
6.10321e-06
6.10615e-06
6.10989e-06
6.11439e-06
6.1187e-06
6.12997e-06
6.13466e-06
6.13527e-06
6.18752e-06
6.20183e-06
6.08365e-06
6.08379e-06
6.08351e-06
6.08295e-06
6.08206e-06
6.0812e-06
6.08059e-06
6.08025e-06
6.08009e-06
6.08007e-06
6.08017e-06
6.08035e-06
6.08057e-06
6.08081e-06
6.08104e-06
6.08125e-06
6.08142e-06
6.08156e-06
6.08166e-06
6.08173e-06
6.08179e-06
6.08186e-06
6.08196e-06
6.08212e-06
6.08237e-06
6.08273e-06
6.08319e-06
6.08377e-06
6.08447e-06