/*--------------------------------*- C++ -*----------------------------------*\
| =========                 |                                                 |
| \\      /  F ield         | OpenFOAM: The Open Source CFD Toolbox           |
|  \\    /   O peration     | Version:  2312                                  |
|   \\  /    A nd           | Website:  www.openfoam.com                      |
|    \\/     M anipulation  |                                                 |
\*---------------------------------------------------------------------------*/
FoamFile
{
    version     2.0;
    format      ascii;
    arch        "LSB;label=32;scalar=64";
    class       volScalarField;
    location    "100";
    object      nuTilda;
}
// * * * * * * * * * * * * * * * * * * * * * * * * * * * * * * * * * * * * * //

dimensions      [0 2 -1 0 0 0 0];

internalField   nonuniform List<scalar> 
10720
(
5.77206e-05
6.05381e-05
6.41129e-05
6.85231e-05
7.40152e-05
8.09341e-05
8.98399e-05
0.000101194
0.00011603
0.000135557
0.000161556
0.000196927
0.000246165
0.000315348
0.000414485
0.000561843
0.000786148
0.00115157
0.00174381
0.00287329
0.00478226
0.00957657
0.018101
0.0478545
0.0887316
0.10606
0.107945
0.107802
0.108614
0.109219
0.108416
0.106013
0.1025
0.0980704
0.0925375
0.0857815
0.0763803
0.0657361
0.0347587
5.51441e-05
5.27449e-05
5.02395e-05
4.77286e-05
4.51651e-05
4.26551e-05
4.06995e-05
4.30575e-05
4.68773e-05
5.20603e-05
5.89862e-05
6.83284e-05
8.10455e-05
9.87104e-05
0.000123555
0.000159296
0.000211933
0.000291593
0.000416437
0.000617319
0.000960201
0.00154998
0.00268338
0.00477057
0.00949077
0.0188052
0.0422897
0.0778686
0.101632
0.110637
0.113127
0.113786
0.113702
0.113033
0.111879
0.110358
0.108118
0.105667
0.0957745
3.85311e-05
3.83439e-05
3.81582e-05
3.79865e-05
3.77823e-05
3.75788e-05
3.73999e-05
3.72188e-05
3.70783e-05
3.69822e-05
3.69225e-05
3.69972e-05
3.70474e-05
3.81517e-05
4.2019e-05
5.06689e-05
6.94764e-05
0.000108808
0.000185654
0.000359022
0.000686817
0.00160772
0.00335248
0.00875335
0.0208082
0.0372459
0.058284
0.0828545
0.107438
0.126476
0.13671
0.140172
0.140156
0.138361
0.135484
0.131745
0.128056
0.121602
0.119745
3.86754e-05
3.88841e-05
3.90744e-05
3.93254e-05
3.95754e-05
3.98255e-05
4.00418e-05
3.98689e-05
3.9565e-05
3.91921e-05
3.87648e-05
3.82841e-05
3.77475e-05
3.71471e-05
3.64416e-05
3.56112e-05
3.45577e-05
3.32187e-05
3.1383e-05
2.88252e-05
2.50402e-05
1.9636e-05
1.25637e-05
6.35727e-06
3.33065e-05
0.000180464
0.00105618
0.00629277
0.0180133
0.0336299
0.0487429
0.0596523
0.0659495
0.0693631
0.0714786
0.0732459
0.0747813
0.0781832
0.0814361
4.02444e-05
4.0284e-05
4.03218e-05
4.03615e-05
4.04074e-05
4.04567e-05
4.05101e-05
4.05695e-05
4.06356e-05
4.0709e-05
4.0793e-05
4.08894e-05
4.10022e-05
4.1136e-05
4.13068e-05
4.1496e-05
4.02871e-05
3.74343e-05
2.18632e-05
1.60056e-05
6.04474e-05
0.000325347
2.79617e-05
3.3857e-05
0.000463668
0.00200645
0.0054252
0.0126489
0.0264701
0.0488781
0.078183
0.108224
0.132168
0.147779
0.157293
0.162847
0.166978
0.166207
0.168694
4.02189e-05
4.02021e-05
4.01892e-05
4.01727e-05
4.0153e-05
4.01346e-05
4.01038e-05
4.01123e-05
4.01363e-05
4.01707e-05
4.02104e-05
4.02549e-05
4.03074e-05
4.0366e-05
4.04324e-05
4.05055e-05
4.05878e-05
4.06808e-05
4.07902e-05
4.09211e-05
4.10848e-05
4.12952e-05
4.15685e-05
4.18876e-05
4.211e-05
4.16462e-05
4.06921e-05
3.24818e-05
0.000202091
0.00117062
0.00399854
0.00929241
0.016755
0.025526
0.034581
0.0431091
0.0503735
0.0567851
0.0669529
4.00197e-05
4.00129e-05
4.00152e-05
4.00207e-05
4.00271e-05
4.00362e-05
4.00488e-05
4.00639e-05
4.00841e-05
4.01093e-05
4.01404e-05
4.0179e-05
4.02268e-05
4.02858e-05
4.03587e-05
4.04565e-05
4.05324e-05
4.04553e-05
3.95799e-05
3.60486e-05
3.07249e-05
8.54427e-06
9.09771e-06
6.95019e-06
9.68814e-05
0.000426303
0.0011707
0.00278176
0.000366344
0.00356555
0.0125331
0.0317118
0.062272
0.0984996
0.131665
0.157371
0.177713
0.192041
0.20012
4.00377e-05
4.00643e-05
4.00785e-05
4.00914e-05
4.0095e-05
4.01019e-05
4.01028e-05
4.00911e-05
4.00763e-05
4.00621e-05
4.00494e-05
4.00389e-05
4.00305e-05
4.00247e-05
4.00211e-05
4.00195e-05
4.00198e-05
4.00214e-05
4.0024e-05
4.0027e-05
4.00298e-05
4.0032e-05
4.00327e-05
4.0035e-05
4.0036e-05
4.00701e-05
4.00082e-05
4.04601e-05
3.875e-05
4.53233e-05
2.09577e-05
2.89388e-05
0.000333269
0.00140522
0.0038353
0.00831151
0.0150864
0.0241355
0.0424004
4.0093e-05
4.00778e-05
4.00727e-05
4.007e-05
4.00683e-05
4.00679e-05
4.00688e-05
4.00728e-05
4.00799e-05
4.00902e-05
4.01037e-05
4.01206e-05
4.01413e-05
4.01665e-05
4.01975e-05
4.02369e-05
4.0285e-05
4.03287e-05
4.03803e-05
4.03187e-05
3.89768e-05
3.56122e-05
1.80221e-05
7.38728e-06
4.70959e-06
9.25726e-08
0
0
8.07113e-05
0.000795644
0.00286807
0.00133788
0.00876364
0.028947
0.0654399
0.110829
0.154825
0.194144
0.215273
4.01127e-05
4.01271e-05
4.01278e-05
4.01245e-05
4.01138e-05
4.01116e-05
4.01105e-05
4.01073e-05
4.01028e-05
4.00978e-05
4.00932e-05
4.00892e-05
4.00865e-05
4.0085e-05
4.00854e-05
4.00878e-05
4.0092e-05
4.00979e-05
4.01054e-05
4.0114e-05
4.01236e-05
4.01339e-05
4.0145e-05
4.01569e-05
4.01715e-05
4.01852e-05
4.0216e-05
4.019e-05
4.03977e-05
3.95244e-05
4.2787e-05
4.5106e-06
8.52928e-05
0.000339336
0.000287088
0.000235425
0.000828554
0.00205842
0.0150502
4.01162e-05
4.01015e-05
4.00946e-05
4.00892e-05
4.00848e-05
4.00821e-05
4.00809e-05
4.00814e-05
4.00839e-05
4.00886e-05
4.00954e-05
4.01047e-05
4.01165e-05
4.01311e-05
4.01492e-05
4.01719e-05
4.02008e-05
4.02335e-05
4.02735e-05
4.03804e-05
4.04887e-05
4.09589e-05
3.90857e-05
3.31283e-05
2.3886e-05
4.61816e-07
6.37177e-06
4.74861e-06
9.18837e-07
0
0
0.000303624
0.00204855
0.0015358
0.0118791
0.0448752
0.10044
0.168931
0.212918
4.01246e-05
4.01247e-05
4.01149e-05
4.01061e-05
4.00938e-05
4.00948e-05
4.01006e-05
4.01051e-05
4.01067e-05
4.01057e-05
4.01027e-05
4.00989e-05
4.00947e-05
4.00906e-05
4.00873e-05
4.00849e-05
4.00838e-05
4.00838e-05
4.00849e-05
4.00869e-05
4.00895e-05
4.00926e-05
4.00957e-05
4.00989e-05
4.01029e-05
4.01077e-05
4.01128e-05
4.0119e-05
4.01289e-05
4.01257e-05
4.01701e-05
4.01978e-05
3.86221e-05
2.8671e-05
7.45304e-06
6.08006e-05
0.000196408
0.000535226
0.00264131
4.01217e-05
4.01171e-05
4.01142e-05
4.01102e-05
4.0106e-05
4.01019e-05
4.00977e-05
4.00939e-05
4.00908e-05
4.00886e-05
4.00874e-05
4.00872e-05
4.00879e-05
4.00889e-05
4.00913e-05
4.00958e-05
4.0103e-05
4.01121e-05
4.01232e-05
4.01343e-05
4.01734e-05
4.03474e-05
4.09106e-05
4.08815e-05
4.01747e-05
3.70253e-05
3.14458e-05
2.31633e-05
4.42019e-06
6.55458e-06
1.3248e-06
0
0
0.000354498
2.94376e-05
0.00561146
0.038563
0.119584
0.19106
4.01127e-05
4.00999e-05
4.00841e-05
4.00751e-05
4.00651e-05
4.00698e-05
4.0081e-05
4.0091e-05
4.00983e-05
4.01026e-05
4.01045e-05
4.01044e-05
4.01029e-05
4.01005e-05
4.00978e-05
4.00954e-05
4.00936e-05
4.00926e-05
4.00928e-05
4.00941e-05
4.00964e-05
4.00999e-05
4.01043e-05
4.01097e-05
4.01161e-05
4.01236e-05
4.01324e-05
4.01427e-05
4.01532e-05
4.01721e-05
4.01654e-05
4.02418e-05
4.02878e-05
3.82718e-05
3.16065e-05
2.35357e-05
8.00887e-06
1.93697e-06
0.000111044
4.00995e-05
4.0107e-05
4.01109e-05
4.01124e-05
4.01125e-05
4.01119e-05
4.01104e-05
4.01083e-05
4.01062e-05
4.01042e-05
4.01029e-05
4.01026e-05
4.01036e-05
4.0106e-05
4.01102e-05
4.01163e-05
4.01246e-05
4.01355e-05
4.0147e-05
4.01577e-05
4.01697e-05
4.01715e-05
4.02319e-05
4.05166e-05
4.08861e-05
4.16195e-05
4.15905e-05
4.05657e-05
3.64809e-05
3.0561e-05
6.25695e-06
5.8969e-06
0
0
6.81014e-06
0.00134113
0.00145812
0.0622758
0.15129
4.00774e-05
4.00604e-05
4.00461e-05
4.00419e-05
4.00363e-05
4.00422e-05
4.00551e-05
4.00683e-05
4.00796e-05
4.00884e-05
4.00949e-05
4.00991e-05
4.01013e-05
4.01018e-05
4.01012e-05
4.00999e-05
4.00983e-05
4.00968e-05
4.00958e-05
4.00953e-05
4.00955e-05
4.00965e-05
4.00983e-05
4.01008e-05
4.01038e-05
4.01075e-05
4.01118e-05
4.01164e-05
4.01213e-05
4.01261e-05
4.0131e-05
4.01324e-05
4.01484e-05
4.01334e-05
4.06696e-05
3.96527e-05
3.35596e-05
8.86114e-06
2.64861e-05
4.00629e-05
4.00786e-05
4.0088e-05
4.00951e-05
4.01003e-05
4.01044e-05
4.01071e-05
4.01084e-05
4.01088e-05
4.01083e-05
4.01074e-05
4.01065e-05
4.01057e-05
4.01053e-05
4.01056e-05
4.01066e-05
4.01084e-05
4.01107e-05
4.01144e-05
4.01206e-05
4.01302e-05
4.01414e-05
4.01428e-05
4.01722e-05
4.02347e-05
4.04939e-05
4.09536e-05
4.15859e-05
4.20293e-05
4.21397e-05
3.81729e-05
2.67361e-05
8.63466e-06
2.50183e-06
0
0
0.000783716
0.021406
0.103398
4.00381e-05
4.00257e-05
4.00185e-05
4.002e-05
4.00174e-05
4.00215e-05
4.00324e-05
4.00452e-05
4.00576e-05
4.00686e-05
4.00781e-05
4.00858e-05
4.00916e-05
4.00955e-05
4.0098e-05
4.00991e-05
4.00993e-05
4.0099e-05
4.00985e-05
4.00981e-05
4.0098e-05
4.00984e-05
4.00995e-05
4.01014e-05
4.01041e-05
4.01078e-05
4.01126e-05
4.01184e-05
4.01254e-05
4.01333e-05
4.01429e-05
4.01528e-05
4.01621e-05
4.0161e-05
4.026e-05
4.04357e-05
4.1177e-05
3.6425e-05
5.57846e-06
4.00279e-05
4.00448e-05
4.00565e-05
4.00669e-05
4.00757e-05
4.00837e-05
4.00905e-05
4.00959e-05
4.01002e-05
4.01034e-05
4.01055e-05
4.0107e-05
4.01081e-05
4.01091e-05
4.01103e-05
4.01119e-05
4.01143e-05
4.01177e-05
4.01221e-05
4.01272e-05
4.01331e-05
4.01413e-05
4.01491e-05
4.01523e-05
4.01498e-05
4.01524e-05
4.02213e-05
4.04091e-05
4.08531e-05
4.14498e-05
4.28238e-05
4.18426e-05
3.63926e-05
1.157e-05
3.6493e-06
0
3.3721e-06
0.000155733
0.0608744
4.00101e-05
4.00075e-05
4.00092e-05
4.00147e-05
4.00118e-05
4.00125e-05
4.00189e-05
4.00283e-05
4.00387e-05
4.00491e-05
4.00593e-05
4.00686e-05
4.00766e-05
4.00832e-05
4.00884e-05
4.00921e-05
4.00947e-05
4.00963e-05
4.00973e-05
4.00978e-05
4.00981e-05
4.00985e-05
4.00992e-05
4.01003e-05
4.0102e-05
4.01044e-05
4.01076e-05
4.01116e-05
4.01164e-05
4.01221e-05
4.01284e-05
4.0136e-05
4.01424e-05
4.01565e-05
4.01279e-05
4.03697e-05
3.9723e-05
4.43447e-05
2.16269e-05
4.00069e-05
4.00189e-05
4.00292e-05
4.00394e-05
4.00488e-05
4.00581e-05
4.0067e-05
4.0075e-05
4.00823e-05
4.00886e-05
4.00939e-05
4.00982e-05
4.01018e-05
4.01047e-05
4.01071e-05
4.01094e-05
4.01117e-05
4.01141e-05
4.01171e-05
4.01209e-05
4.01259e-05
4.01325e-05
4.01415e-05
4.01513e-05
4.01597e-05
4.01589e-05
4.01518e-05
4.01463e-05
4.02016e-05
4.02984e-05
4.09116e-05
4.1868e-05
4.29142e-05
4.04713e-05
1.52982e-05
1.90815e-06
0
0.00075178
0.034252
4.00014e-05
4.00084e-05
4.00167e-05
4.00235e-05
4.00188e-05
4.00156e-05
4.00167e-05
4.00212e-05
4.00276e-05
4.00351e-05
4.00435e-05
4.00522e-05
4.00605e-05
4.00682e-05
4.0075e-05
4.00808e-05
4.00854e-05
4.00891e-05
4.00919e-05
4.0094e-05
4.00956e-05
4.00968e-05
4.0098e-05
4.00994e-05
4.01011e-05
4.01033e-05
4.01061e-05
4.01098e-05
4.01143e-05
4.01198e-05
4.01263e-05
4.01342e-05
4.01416e-05
4.01563e-05
4.01388e-05
4.02745e-05
3.97794e-05
4.18745e-05
3.68323e-05
4.00043e-05
4.00085e-05
4.00148e-05
4.00218e-05
4.00291e-05
4.00369e-05
4.00453e-05
4.00537e-05
4.0062e-05
4.00699e-05
4.00772e-05
4.00839e-05
4.00899e-05
4.00951e-05
4.00998e-05
4.0104e-05
4.01079e-05
4.01117e-05
4.01157e-05
4.01198e-05
4.01243e-05
4.01295e-05
4.01361e-05
4.01448e-05
4.01555e-05
4.01665e-05
4.01743e-05
4.01736e-05
4.01658e-05
4.01423e-05
4.01567e-05
4.0468e-05
4.09549e-05
4.38942e-05
4.21224e-05
6.8409e-06
1.78949e-07
0.000390038
0.0178099
4.00102e-05
4.00226e-05
4.00331e-05
4.00387e-05
4.0033e-05
4.0027e-05
4.00239e-05
4.00237e-05
4.00256e-05
4.00292e-05
4.00343e-05
4.00405e-05
4.00474e-05
4.00544e-05
4.00613e-05
4.00677e-05
4.00736e-05
4.00787e-05
4.0083e-05
4.00867e-05
4.00897e-05
4.00921e-05
4.00943e-05
4.00963e-05
4.00984e-05
4.01007e-05
4.01034e-05
4.01067e-05
4.01105e-05
4.01152e-05
4.01206e-05
4.01271e-05
4.01343e-05
4.01441e-05
4.01481e-05
4.0183e-05
4.0113e-05
4.03251e-05
4.033e-05
4.00164e-05
4.00135e-05
4.00153e-05
4.00179e-05
4.00214e-05
4.00261e-05
4.00318e-05
4.00382e-05
4.00454e-05
4.00529e-05
4.00604e-05
4.00679e-05
4.00751e-05
4.00818e-05
4.00882e-05
4.0094e-05
4.00995e-05
4.01046e-05
4.01096e-05
4.01146e-05
4.01197e-05
4.01252e-05
4.01313e-05
4.01386e-05
4.01476e-05
4.01588e-05
4.01717e-05
4.01851e-05
4.01942e-05
4.01969e-05
4.01605e-05
4.01693e-05
4.0105e-05
4.066e-05
4.52308e-05
3.67444e-05
1.0068e-06
0.000184433
0.00803259
4.00282e-05
4.00401e-05
4.00485e-05
4.00522e-05
4.00471e-05
4.00406e-05
4.00357e-05
4.00325e-05
4.00309e-05
4.00308e-05
4.00324e-05
4.00354e-05
4.00395e-05
4.00446e-05
4.00502e-05
4.0056e-05
4.00618e-05
4.00673e-05
4.00724e-05
4.0077e-05
4.00811e-05
4.00848e-05
4.0088e-05
4.0091e-05
4.00939e-05
4.00968e-05
4.00999e-05
4.01034e-05
4.01073e-05
4.01117e-05
4.0117e-05
4.0123e-05
4.013e-05
4.01379e-05
4.01481e-05
4.01534e-05
4.01923e-05
4.00898e-05
4.04492e-05
4.00343e-05
4.00278e-05
4.00263e-05
4.00252e-05
4.0025e-05
4.0026e-05
4.00282e-05
4.00315e-05
4.0036e-05
4.00415e-05
4.00477e-05
4.00544e-05
4.00613e-05
4.00684e-05
4.00753e-05
4.00821e-05
4.00888e-05
4.00951e-05
4.01013e-05
4.01075e-05
4.01138e-05
4.01201e-05
4.01265e-05
4.01335e-05
4.01414e-05
4.01508e-05
4.01622e-05
4.01763e-05
4.01918e-05
4.02094e-05
4.02199e-05
4.02e-05
4.02293e-05
3.97081e-05
4.11944e-05
4.82687e-05
7.74089e-06
7.03862e-05
0.00292474
4.00451e-05
4.00518e-05
4.00559e-05
4.00583e-05
4.00554e-05
4.00508e-05
4.00464e-05
4.00427e-05
4.00395e-05
4.00372e-05
4.00361e-05
4.00362e-05
4.00376e-05
4.004e-05
4.00435e-05
4.00477e-05
4.00523e-05
4.00572e-05
4.00621e-05
4.00669e-05
4.00715e-05
4.00759e-05
4.00799e-05
4.00838e-05
4.00875e-05
4.00912e-05
4.00949e-05
4.00987e-05
4.01029e-05
4.01074e-05
4.01125e-05
4.01182e-05
4.01247e-05
4.0132e-05
4.01415e-05
4.01477e-05
4.01748e-05
4.01383e-05
4.02561e-05
4.00485e-05
4.00428e-05
4.00403e-05
4.00372e-05
4.00346e-05
4.0033e-05
4.00322e-05
4.00325e-05
4.00341e-05
4.00369e-05
4.00408e-05
4.00456e-05
4.00511e-05
4.00572e-05
4.00637e-05
4.00704e-05
4.00773e-05
4.00842e-05
4.00911e-05
4.00981e-05
4.01054e-05
4.01128e-05
4.01202e-05
4.01276e-05
4.01355e-05
4.01442e-05
4.01543e-05
4.01664e-05
4.01811e-05
4.01974e-05
4.02237e-05
4.02225e-05
4.02879e-05
4.01905e-05
3.90328e-05
4.63477e-05
2.93207e-05
2.07198e-05
0.00078962
4.00532e-05
4.00532e-05
4.00532e-05
4.00557e-05
4.00554e-05
4.00539e-05
4.0052e-05
4.00498e-05
4.00471e-05
4.00445e-05
4.00422e-05
4.00406e-05
4.00399e-05
4.00402e-05
4.00414e-05
4.00435e-05
4.00465e-05
4.005e-05
4.00539e-05
4.00582e-05
4.00625e-05
4.00669e-05
4.00712e-05
4.00755e-05
4.00798e-05
4.00841e-05
4.00884e-05
4.00928e-05
4.00974e-05
4.01022e-05
4.01075e-05
4.01133e-05
4.01197e-05
4.01269e-05
4.01353e-05
4.0144e-05
4.01575e-05
4.0165e-05
4.01886e-05
4.00535e-05
4.00514e-05
4.005e-05
4.0047e-05
4.00441e-05
4.00415e-05
4.00393e-05
4.00378e-05
4.00372e-05
4.00377e-05
4.00392e-05
4.00418e-05
4.00453e-05
4.00498e-05
4.0055e-05
4.00607e-05
4.0067e-05
4.00737e-05
4.00807e-05
4.00879e-05
4.00957e-05
4.01038e-05
4.01121e-05
4.01204e-05
4.01288e-05
4.01375e-05
4.01472e-05
4.01582e-05
4.01716e-05
4.01855e-05
4.02078e-05
4.02277e-05
4.02234e-05
4.05093e-05
3.92341e-05
4.18743e-05
4.3986e-05
4.90594e-06
0.000137638
4.00506e-05
4.00455e-05
4.00431e-05
4.00464e-05
4.00482e-05
4.00498e-05
4.0051e-05
4.00513e-05
4.00506e-05
4.00492e-05
4.00474e-05
4.00456e-05
4.00441e-05
4.0043e-05
4.00427e-05
4.00431e-05
4.00443e-05
4.00462e-05
4.00487e-05
4.00518e-05
4.00553e-05
4.00591e-05
4.00631e-05
4.00673e-05
4.00717e-05
4.00763e-05
4.00809e-05
4.00857e-05
4.00907e-05
4.00959e-05
4.01015e-05
4.01074e-05
4.01139e-05
4.01211e-05
4.01292e-05
4.01384e-05
4.01486e-05
4.01635e-05
4.01757e-05
4.00484e-05
4.00508e-05
4.00516e-05
4.00505e-05
4.00489e-05
4.00471e-05
4.00451e-05
4.00432e-05
4.00419e-05
4.00411e-05
4.0041e-05
4.00419e-05
4.00436e-05
4.00463e-05
4.00498e-05
4.00542e-05
4.00593e-05
4.0065e-05
4.00714e-05
4.00782e-05
4.00857e-05
4.0094e-05
4.01028e-05
4.01118e-05
4.01209e-05
4.013e-05
4.01397e-05
4.01503e-05
4.01628e-05
4.01765e-05
4.01921e-05
4.02244e-05
4.01875e-05
4.04365e-05
4.0072e-05
3.91079e-05
4.86336e-05
5.89465e-06
1.21666e-05
4.00401e-05
4.00334e-05
4.00308e-05
4.00346e-05
4.00375e-05
4.00409e-05
4.00444e-05
4.00472e-05
4.00489e-05
4.00496e-05
4.00494e-05
4.00486e-05
4.00474e-05
4.00462e-05
4.00453e-05
4.00447e-05
4.00446e-05
4.00452e-05
4.00464e-05
4.00481e-05
4.00505e-05
4.00533e-05
4.00565e-05
4.00602e-05
4.00643e-05
4.00687e-05
4.00733e-05
4.00783e-05
4.00834e-05
4.00889e-05
4.00947e-05
4.01009e-05
4.01075e-05
4.01148e-05
4.01229e-05
4.0132e-05
4.0142e-05
4.01557e-05
4.01707e-05
4.00372e-05
4.00426e-05
4.00457e-05
4.0047e-05
4.00475e-05
4.00476e-05
4.0047e-05
4.00461e-05
4.00452e-05
4.00443e-05
4.00438e-05
4.00438e-05
4.00444e-05
4.00456e-05
4.00477e-05
4.00506e-05
4.00543e-05
4.00588e-05
4.00641e-05
4.00701e-05
4.00768e-05
4.00846e-05
4.00932e-05
4.01025e-05
4.0112e-05
4.01217e-05
4.01317e-05
4.01422e-05
4.0154e-05
4.01681e-05
4.01802e-05
4.02117e-05
4.01981e-05
4.02657e-05
4.0541e-05
3.86542e-05
4.66897e-05
1.89768e-05
4.89193e-06
4.00276e-05
4.00224e-05
4.00213e-05
4.00247e-05
4.00274e-05
4.0031e-05
4.00354e-05
4.00396e-05
4.00431e-05
4.00457e-05
4.00474e-05
4.00482e-05
4.00483e-05
4.00479e-05
4.00472e-05
4.00465e-05
4.0046e-05
4.00458e-05
4.0046e-05
4.00467e-05
4.00479e-05
4.00497e-05
4.0052e-05
4.00548e-05
4.00582e-05
4.0062e-05
4.00663e-05
4.0071e-05
4.00761e-05
4.00816e-05
4.00874e-05
4.00937e-05
4.01005e-05
4.01079e-05
4.01161e-05
4.01252e-05
4.01354e-05
4.01479e-05
4.01643e-05
4.00254e-05
4.00316e-05
4.00359e-05
4.00391e-05
4.00415e-05
4.00434e-05
4.00446e-05
4.00452e-05
4.00455e-05
4.00455e-05
4.00454e-05
4.00454e-05
4.00457e-05
4.00463e-05
4.00475e-05
4.00493e-05
4.00519e-05
4.00552e-05
4.00592e-05
4.00641e-05
4.00698e-05
4.00765e-05
4.00844e-05
4.00933e-05
4.01028e-05
4.01127e-05
4.01231e-05
4.01339e-05
4.01454e-05
4.01593e-05
4.01712e-05
4.01945e-05
4.02149e-05
4.01698e-05
4.05766e-05
3.93179e-05
4.2629e-05
3.6105e-05
1.78315e-05
4.00182e-05
4.00163e-05
4.00173e-05
4.00197e-05
4.0021e-05
4.00235e-05
4.00272e-05
4.00315e-05
4.00357e-05
4.00393e-05
4.00423e-05
4.00446e-05
4.00461e-05
4.00469e-05
4.00472e-05
4.00471e-05
4.00468e-05
4.00465e-05
4.00463e-05
4.00464e-05
4.00469e-05
4.00478e-05
4.00492e-05
4.00512e-05
4.00537e-05
4.00568e-05
4.00605e-05
4.00647e-05
4.00694e-05
4.00745e-05
4.00802e-05
4.00864e-05
4.00931e-05
4.01006e-05
4.01088e-05
4.01179e-05
4.01283e-05
4.01405e-05
4.0157e-05
4.00177e-05
4.00226e-05
4.00268e-05
4.00305e-05
4.00338e-05
4.00368e-05
4.00393e-05
4.00413e-05
4.00429e-05
4.0044e-05
4.00448e-05
4.00455e-05
4.00461e-05
4.00468e-05
4.00477e-05
4.0049e-05
4.00508e-05
4.00532e-05
4.00563e-05
4.00601e-05
4.00646e-05
4.00702e-05
4.00769e-05
4.00849e-05
4.00938e-05
4.01036e-05
4.0114e-05
4.01251e-05
4.01366e-05
4.01502e-05
4.01632e-05
4.01786e-05
4.02168e-05
4.01531e-05
4.04276e-05
4.00305e-05
4.01707e-05
4.23276e-05
3.05341e-05
4.00149e-05
4.00161e-05
4.00185e-05
4.00199e-05
4.00195e-05
4.00202e-05
4.00223e-05
4.00255e-05
4.0029e-05
4.00326e-05
4.00361e-05
4.00392e-05
4.00417e-05
4.00436e-05
4.0045e-05
4.00458e-05
4.00462e-05
4.00463e-05
4.00463e-05
4.00463e-05
4.00465e-05
4.00469e-05
4.00477e-05
4.00489e-05
4.00507e-05
4.0053e-05
4.0056e-05
4.00595e-05
4.00636e-05
4.00683e-05
4.00735e-05
4.00794e-05
4.00859e-05
4.00931e-05
4.01013e-05
4.01104e-05
4.01208e-05
4.01329e-05
4.01492e-05
4.0016e-05
4.00183e-05
4.00213e-05
4.00243e-05
4.00274e-05
4.00305e-05
4.00334e-05
4.00361e-05
4.00385e-05
4.00405e-05
4.00422e-05
4.00437e-05
4.00449e-05
4.0046e-05
4.00472e-05
4.00485e-05
4.00501e-05
4.00521e-05
4.00545e-05
4.00575e-05
4.00612e-05
4.00656e-05
4.00711e-05
4.00778e-05
4.00858e-05
4.00948e-05
4.01049e-05
4.0116e-05
4.01276e-05
4.01407e-05
4.0155e-05
4.01662e-05
4.02057e-05
4.01696e-05
4.02741e-05
4.04265e-05
3.94146e-05
4.24657e-05
3.79252e-05
4.00174e-05
4.00204e-05
4.00231e-05
4.00237e-05
4.00221e-05
4.00211e-05
4.00213e-05
4.00228e-05
4.0025e-05
4.00276e-05
4.00306e-05
4.00337e-05
4.00365e-05
4.0039e-05
4.00411e-05
4.00427e-05
4.00439e-05
4.00447e-05
4.00452e-05
4.00455e-05
4.00457e-05
4.0046e-05
4.00466e-05
4.00474e-05
4.00487e-05
4.00504e-05
4.00527e-05
4.00555e-05
4.0059e-05
4.0063e-05
4.00677e-05
4.00731e-05
4.00791e-05
4.0086e-05
4.00939e-05
4.01028e-05
4.01131e-05
4.01252e-05
4.01412e-05
4.00194e-05
4.00192e-05
4.00205e-05
4.00221e-05
4.0024e-05
4.00263e-05
4.00288e-05
4.00313e-05
4.00338e-05
4.00362e-05
4.00384e-05
4.00405e-05
4.00423e-05
4.0044e-05
4.00456e-05
4.00472e-05
4.0049e-05
4.00509e-05
4.00531e-05
4.00557e-05
4.00588e-05
4.00624e-05
4.00669e-05
4.00724e-05
4.0079e-05
4.0087e-05
4.00962e-05
4.01068e-05
4.01183e-05
4.01311e-05
4.01459e-05
4.01563e-05
4.01894e-05
4.01872e-05
4.01774e-05
4.0539e-05
3.95149e-05
4.12271e-05
4.09134e-05
4.00233e-05
4.00263e-05
4.00283e-05
4.00287e-05
4.00266e-05
4.00246e-05
4.00235e-05
4.00234e-05
4.00241e-05
4.00253e-05
4.00273e-05
4.00295e-05
4.0032e-05
4.00344e-05
4.00367e-05
4.00387e-05
4.00404e-05
4.00418e-05
4.00429e-05
4.00436e-05
4.00442e-05
4.00448e-05
4.00453e-05
4.0046e-05
4.0047e-05
4.00484e-05
4.00502e-05
4.00525e-05
4.00553e-05
4.00588e-05
4.00628e-05
4.00676e-05
4.00731e-05
4.00794e-05
4.00868e-05
4.00953e-05
4.01053e-05
4.01172e-05
4.01331e-05
4.00252e-05
4.00234e-05
4.00234e-05
4.00234e-05
4.0024e-05
4.00252e-05
4.00267e-05
4.00284e-05
4.00305e-05
4.00326e-05
4.00347e-05
4.00369e-05
4.0039e-05
4.00411e-05
4.00431e-05
4.00451e-05
4.0047e-05
4.00491e-05
4.00514e-05
4.00538e-05
4.00567e-05
4.00599e-05
4.00637e-05
4.00682e-05
4.00737e-05
4.00804e-05
4.00885e-05
4.00981e-05
4.01091e-05
4.01214e-05
4.01362e-05
4.01473e-05
4.01727e-05
4.01948e-05
4.01348e-05
4.04934e-05
3.98528e-05
4.02673e-05
4.15154e-05
4.00293e-05
4.0031e-05
4.00319e-05
4.00325e-05
4.00307e-05
4.00286e-05
4.00269e-05
4.00259e-05
4.00255e-05
4.00255e-05
4.00262e-05
4.00274e-05
4.0029e-05
4.00309e-05
4.00329e-05
4.00348e-05
4.00367e-05
4.00383e-05
4.00397e-05
4.00409e-05
4.00419e-05
4.00428e-05
4.00435e-05
4.00444e-05
4.00453e-05
4.00466e-05
4.00481e-05
4.005e-05
4.00524e-05
4.00554e-05
4.00589e-05
4.0063e-05
4.00679e-05
4.00737e-05
4.00804e-05
4.00883e-05
4.00978e-05
4.01092e-05
4.01247e-05
4.00305e-05
4.00285e-05
4.00278e-05
4.00268e-05
4.00265e-05
4.00266e-05
4.0027e-05
4.00278e-05
4.0029e-05
4.00305e-05
4.00322e-05
4.0034e-05
4.0036e-05
4.00381e-05
4.00402e-05
4.00424e-05
4.00446e-05
4.00468e-05
4.00492e-05
4.00517e-05
4.00545e-05
4.00576e-05
4.0061e-05
4.00649e-05
4.00695e-05
4.00751e-05
4.0082e-05
4.00905e-05
4.01005e-05
4.01119e-05
4.01261e-05
4.01382e-05
4.01573e-05
4.01923e-05
4.01256e-05
4.03905e-05
4.01481e-05
3.98374e-05
4.11738e-05
4.00331e-05
4.0033e-05
4.00329e-05
4.00338e-05
4.00328e-05
4.00313e-05
4.00299e-05
4.00287e-05
4.00278e-05
4.00272e-05
4.0027e-05
4.00272e-05
4.00279e-05
4.00289e-05
4.00302e-05
4.00317e-05
4.00334e-05
4.00349e-05
4.00364e-05
4.00378e-05
4.00391e-05
4.00402e-05
4.00412e-05
4.00422e-05
4.00433e-05
4.00446e-05
4.00461e-05
4.00478e-05
4.00499e-05
4.00525e-05
4.00556e-05
4.00592e-05
4.00636e-05
4.00687e-05
4.00748e-05
4.0082e-05
4.00908e-05
4.01016e-05
4.01163e-05
4.00334e-05
4.00322e-05
4.00316e-05
4.00305e-05
4.00296e-05
4.00292e-05
4.00289e-05
4.00289e-05
4.00293e-05
4.003e-05
4.00311e-05
4.00324e-05
4.0034e-05
4.00357e-05
4.00377e-05
4.00398e-05
4.00419e-05
4.00443e-05
4.00467e-05
4.00493e-05
4.00521e-05
4.00551e-05
4.00584e-05
4.0062e-05
4.00661e-05
4.00709e-05
4.00767e-05
4.0084e-05
4.00928e-05
4.01032e-05
4.01163e-05
4.01291e-05
4.01437e-05
4.01829e-05
4.01315e-05
4.02878e-05
4.03206e-05
3.97806e-05
4.06453e-05
4.00336e-05
4.00321e-05
4.00314e-05
4.00325e-05
4.00324e-05
4.00318e-05
4.00311e-05
4.00304e-05
4.00297e-05
4.00289e-05
4.00284e-05
4.00281e-05
4.0028e-05
4.00284e-05
4.0029e-05
4.00299e-05
4.0031e-05
4.00322e-05
4.00336e-05
4.00349e-05
4.00361e-05
4.00373e-05
4.00385e-05
4.00397e-05
4.0041e-05
4.00423e-05
4.00439e-05
4.00456e-05
4.00476e-05
4.00499e-05
4.00527e-05
4.0056e-05
4.00598e-05
4.00644e-05
4.00699e-05
4.00765e-05
4.00845e-05
4.00945e-05
4.01083e-05
4.00332e-05
4.00334e-05
4.00335e-05
4.00328e-05
4.00321e-05
4.00316e-05
4.0031e-05
4.00307e-05
4.00306e-05
4.00308e-05
4.00312e-05
4.0032e-05
4.0033e-05
4.00343e-05
4.00359e-05
4.00377e-05
4.00397e-05
4.00419e-05
4.00442e-05
4.00468e-05
4.00496e-05
4.00526e-05
4.00558e-05
4.00593e-05
4.0063e-05
4.00673e-05
4.00724e-05
4.00786e-05
4.00863e-05
4.00955e-05
4.01073e-05
4.01202e-05
4.01318e-05
4.01693e-05
4.01409e-05
4.02089e-05
4.03788e-05
3.99056e-05
4.02327e-05
4.00314e-05
4.00292e-05
4.00285e-05
4.00295e-05
4.003e-05
4.00301e-05
4.00303e-05
4.00303e-05
4.00302e-05
4.00298e-05
4.00294e-05
4.0029e-05
4.00287e-05
4.00286e-05
4.00287e-05
4.00291e-05
4.00296e-05
4.00304e-05
4.00314e-05
4.00324e-05
4.00335e-05
4.00346e-05
4.00358e-05
4.00371e-05
4.00384e-05
4.00398e-05
4.00414e-05
4.00432e-05
4.00451e-05
4.00473e-05
4.00499e-05
4.00529e-05
4.00565e-05
4.00607e-05
4.00656e-05
4.00716e-05
4.00789e-05
4.00881e-05
4.01008e-05
4.00307e-05
4.00322e-05
4.00332e-05
4.00331e-05
4.0033e-05
4.00328e-05
4.00324e-05
4.00321e-05
4.00319e-05
4.00318e-05
4.00319e-05
4.00323e-05
4.00329e-05
4.00338e-05
4.00349e-05
4.00363e-05
4.0038e-05
4.00399e-05
4.00421e-05
4.00445e-05
4.00471e-05
4.005e-05
4.00531e-05
4.00565e-05
4.00601e-05
4.00641e-05
4.00687e-05
4.00741e-05
4.00808e-05
4.00888e-05
4.00992e-05
4.01117e-05
4.01216e-05
4.0154e-05
4.01481e-05
4.01586e-05
4.03605e-05
4.00739e-05
4.00211e-05
4.00281e-05
4.00262e-05
4.00256e-05
4.00263e-05
4.00269e-05
4.00273e-05
4.0028e-05
4.00287e-05
4.00292e-05
4.00294e-05
4.00294e-05
4.00293e-05
4.00291e-05
4.00289e-05
4.00288e-05
4.00288e-05
4.0029e-05
4.00294e-05
4.00299e-05
4.00306e-05
4.00314e-05
4.00324e-05
4.00334e-05
4.00345e-05
4.00358e-05
4.00373e-05
4.00389e-05
4.00406e-05
4.00426e-05
4.00447e-05
4.00472e-05
4.00501e-05
4.00534e-05
4.00572e-05
4.00618e-05
4.00673e-05
4.0074e-05
4.00823e-05
4.00939e-05
4.00276e-05
4.00297e-05
4.00312e-05
4.00319e-05
4.00323e-05
4.00326e-05
4.00326e-05
4.00326e-05
4.00325e-05
4.00325e-05
4.00326e-05
4.00328e-05
4.00332e-05
4.00338e-05
4.00346e-05
4.00357e-05
4.0037e-05
4.00386e-05
4.00404e-05
4.00425e-05
4.00449e-05
4.00476e-05
4.00505e-05
4.00538e-05
4.00572e-05
4.0061e-05
4.00653e-05
4.00702e-05
4.00761e-05
4.00831e-05
4.0092e-05
4.01037e-05
4.01128e-05
4.01387e-05
4.01503e-05
4.01325e-05
4.03044e-05
4.02074e-05
3.99884e-05
4.00253e-05
4.00243e-05
4.0024e-05
4.00242e-05
4.00243e-05
4.00246e-05
4.00254e-05
4.00263e-05
4.00272e-05
4.00279e-05
4.00284e-05
4.00287e-05
4.00288e-05
4.00288e-05
4.00288e-05
4.00287e-05
4.00287e-05
4.00288e-05
4.0029e-05
4.00294e-05
4.00299e-05
4.00306e-05
4.00314e-05
4.00323e-05
4.00335e-05
4.00349e-05
4.00364e-05
4.00381e-05
4.004e-05
4.00421e-05
4.00445e-05
4.00473e-05
4.00504e-05
4.0054e-05
4.00583e-05
4.00634e-05
4.00695e-05
4.00771e-05
4.00876e-05
4.00254e-05
4.00274e-05
4.0029e-05
4.00299e-05
4.00307e-05
4.00313e-05
4.00317e-05
4.0032e-05
4.00323e-05
4.00325e-05
4.00328e-05
4.00331e-05
4.00334e-05
4.00339e-05
4.00346e-05
4.00354e-05
4.00364e-05
4.00377e-05
4.00393e-05
4.00411e-05
4.00432e-05
4.00456e-05
4.00483e-05
4.00512e-05
4.00544e-05
4.0058e-05
4.0062e-05
4.00666e-05
4.00719e-05
4.00782e-05
4.00858e-05
4.00964e-05
4.01051e-05
4.01246e-05
4.01469e-05
4.01232e-05
4.02399e-05
4.02782e-05
4.00588e-05
4.00244e-05
4.00244e-05
4.00242e-05
4.00237e-05
4.00232e-05
4.0023e-05
4.00233e-05
4.00242e-05
4.00251e-05
4.00259e-05
4.00267e-05
4.00274e-05
4.00278e-05
4.00281e-05
4.00283e-05
4.00283e-05
4.00283e-05
4.00283e-05
4.00284e-05
4.00286e-05
4.00289e-05
4.00293e-05
4.00298e-05
4.00306e-05
4.00315e-05
4.00327e-05
4.00341e-05
4.00357e-05
4.00375e-05
4.00395e-05
4.00418e-05
4.00445e-05
4.00475e-05
4.00509e-05
4.0055e-05
4.00597e-05
4.00654e-05
4.00725e-05
4.00819e-05
4.0025e-05
4.00262e-05
4.00275e-05
4.00284e-05
4.00291e-05
4.00298e-05
4.00304e-05
4.0031e-05
4.00315e-05
4.0032e-05
4.00324e-05
4.00329e-05
4.00334e-05
4.00339e-05
4.00345e-05
4.00353e-05
4.00362e-05
4.00373e-05
4.00386e-05
4.00401e-05
4.00419e-05
4.0044e-05
4.00464e-05
4.0049e-05
4.00519e-05
4.00552e-05
4.0059e-05
4.00632e-05
4.00681e-05
4.00738e-05
4.00804e-05
4.00897e-05
4.00984e-05
4.01124e-05
4.01388e-05
4.01226e-05
4.01849e-05
4.02909e-05
4.0152e-05
4.00255e-05
4.00261e-05
4.00258e-05
4.00248e-05
4.00236e-05
4.00228e-05
4.00226e-05
4.00229e-05
4.00235e-05
4.00243e-05
4.00251e-05
4.00258e-05
4.00264e-05
4.00269e-05
4.00273e-05
4.00275e-05
4.00277e-05
4.00277e-05
4.00278e-05
4.00279e-05
4.0028e-05
4.00282e-05
4.00286e-05
4.00291e-05
4.00299e-05
4.00309e-05
4.00321e-05
4.00335e-05
4.00352e-05
4.00371e-05
4.00393e-05
4.00418e-05
4.00446e-05
4.00479e-05
4.00517e-05
4.00562e-05
4.00616e-05
4.00682e-05
4.00767e-05
4.00263e-05
4.00266e-05
4.00275e-05
4.00279e-05
4.00284e-05
4.00289e-05
4.00295e-05
4.003e-05
4.00307e-05
4.00313e-05
4.00319e-05
4.00325e-05
4.00331e-05
4.00337e-05
4.00344e-05
4.00351e-05
4.0036e-05
4.0037e-05
4.00381e-05
4.00395e-05
4.00411e-05
4.00429e-05
4.00449e-05
4.00472e-05
4.00498e-05
4.00527e-05
4.00561e-05
4.00601e-05
4.00645e-05
4.00698e-05
4.00757e-05
4.00837e-05
4.00924e-05
4.01025e-05
4.01277e-05
4.01244e-05
4.01468e-05
4.02647e-05
4.022e-05
4.00276e-05
4.00283e-05
4.00279e-05
4.00267e-05
4.00251e-05
4.00237e-05
4.0023e-05
4.00228e-05
4.00229e-05
4.00233e-05
4.00239e-05
4.00245e-05
4.00251e-05
4.00256e-05
4.00261e-05
4.00265e-05
4.00267e-05
4.00269e-05
4.0027e-05
4.00271e-05
4.00272e-05
4.00273e-05
4.00276e-05
4.0028e-05
4.00285e-05
4.00294e-05
4.00304e-05
4.00316e-05
4.00331e-05
4.00348e-05
4.00369e-05
4.00392e-05
4.00419e-05
4.0045e-05
4.00486e-05
4.00529e-05
4.0058e-05
4.00642e-05
4.0072e-05
4.00284e-05
4.00282e-05
4.00285e-05
4.00285e-05
4.00286e-05
4.00289e-05
4.00293e-05
4.00297e-05
4.00303e-05
4.00309e-05
4.00315e-05
4.00321e-05
4.00328e-05
4.00335e-05
4.00342e-05
4.00349e-05
4.00358e-05
4.00367e-05
4.00378e-05
4.0039e-05
4.00404e-05
4.0042e-05
4.00438e-05
4.00458e-05
4.0048e-05
4.00506e-05
4.00536e-05
4.00572e-05
4.00613e-05
4.00661e-05
4.00715e-05
4.00784e-05
4.00868e-05
4.00947e-05
4.01156e-05
4.01242e-05
4.01253e-05
4.02216e-05
4.02479e-05
4.00298e-05
4.003e-05
4.00295e-05
4.00285e-05
4.00268e-05
4.00252e-05
4.00241e-05
4.00235e-05
4.00232e-05
4.00231e-05
4.00233e-05
4.00236e-05
4.0024e-05
4.00245e-05
4.00249e-05
4.00253e-05
4.00256e-05
4.00259e-05
4.00261e-05
4.00262e-05
4.00263e-05
4.00264e-05
4.00266e-05
4.00269e-05
4.00274e-05
4.00281e-05