/*--------------------------------*- C++ -*----------------------------------*\
| =========                 |                                                 |
| \\      /  F ield         | OpenFOAM: The Open Source CFD Toolbox           |
|  \\    /   O peration     | Version:  2312                                  |
|   \\  /    A nd           | Website:  www.openfoam.com                      |
|    \\/     M anipulation  |                                                 |
\*---------------------------------------------------------------------------*/
FoamFile
{
    version     2.0;
    format      ascii;
    arch        "LSB;label=32;scalar=64";
    class       volScalarField;
    location    "100";
    object      p;
}
// * * * * * * * * * * * * * * * * * * * * * * * * * * * * * * * * * * * * * //

dimensions      [0 2 -2 0 0 0 0];

internalField   nonuniform List<scalar> 
10720
(
64.2376
3.18669
-69.4406
-143.578
-215.16
-289.34
-357.618
-417.651
-471.652
-516.437
-553.153
-582.663
-605.138
-621.406
-632.213
-637.107
-636.72
-629.824
-617.399
-598.669
-575.377
-548.453
-521.408
-493.636
-460.221
-420.32
-378.629
-339.588
-304.473
-271.477
-238.951
-206.512
-174.088
-141.328
-108.047
-73.3176
-38.0731
2.28675
28.7077
122.784
175.181
227.952
274.901
311.148
332.025
338.559
334.785
319.7
296.113
269.319
242.627
217.212
193.836
172.934
153.749
136.104
119.426
103.392
87.4119
71.4406
55.1354
38.618
22.3601
8.43645
-2.07715
-10.3949
-16.7983
-21.1594
-23.5927
-24.3333
-23.5277
-21.2606
-17.5407
-12.3671
-5.36823
4.03651
19.2316
44.213
126.602
80.4784
27.7403
-29.5615
-89.6783
-152.352
-214.533
-274.197
-330.478
-381.641
-427.119
-466.556
-499.87
-527.184
-548.37
-563.106
-571.35
-572.931
-568.552
-558.129
-542.919
-523.945
-503.494
-480.57
-451.19
-414.695
-375.247
-337.408
-302.84
-270.151
-237.855
-205.577
-173.28
-140.658
-107.521
-72.9212
-37.7805
2.56716
28.2289
167.328
205.263
241.935
275.694
302.913
320.522
327.702
325.028
313.022
294.282
271.983
248.451
224.989
202.488
181.495
161.868
143.51
126.112
109.396
92.9451
76.6317
60.22
43.8054
27.868
14.032
3.27531
-5.2425
-12.017
-17.0673
-20.2781
-21.6771
-21.3899
-19.5322
-16.1384
-11.2166
-4.40523
4.86222
19.9643
44.0595
131.941
90.7103
43.3263
-9.71289
-65.8768
-124.706
-184.632
-243.301
-299.214
-351.225
-398.044
-439.135
-474.19
-502.818
-524.791
-540.361
-549.736
-552.834
-549.92
-541.113
-527.245
-509.283
-488.921
-466.027
-438.155
-404.403
-367.678
-331.895
-298.693
-267.025
-235.569
-203.957
-172.151
-139.865
-106.947
-72.5065
-37.4811
2.77569
28.2849
168.367
202.613
235.512
265.288
288.945
304.736
312.218
311.364
302.494
287.366
268.141
246.82
224.831
203.169
182.499
162.991
144.609
127.172
110.434
94.0636
77.8785
61.7085
45.6214
30.0419
16.2462
5.1874
-3.61018
-10.5679
-15.6941
-18.9072
-20.31
-20.0807
-18.3398
-15.0958
-10.3215
-3.63702
5.53364
20.4965
43.7386
139.373
104.619
64.2801
19.2304
-28.8742
-80.1045
-132.952
-185.804
-237.461
-286.756
-332.56
-374.119
-410.832
-442.228
-467.956
-487.975
-502.38
-510.764
-513.119
-509.529
-500.522
-486.878
-469.808
-449.471
-424.295
-393.555
-359.588
-325.847
-293.975
-263.28
-232.653
-201.748
-170.531
-138.736
-106.207
-72.0582
-37.2223
2.83337
28.569
169.99
198.638
226.497
252.138
272.818
287.319
295.075
295.726
289.493
277.626
261.73
243.412
223.89
204.087
184.671
165.945
147.985
130.741
114.06
97.7171
81.5583
65.4788
49.5487
34.1593
20.3551
9.03225
-0.0522549
-7.29381
-12.7456
-16.3558
-18.1959
-18.384
-16.9978
-14.0326
-9.46134
-2.91833
6.15246
20.9425
43.3578
137.527
106.675
70.7049
30.3419
-12.8355
-59.2902
-107.769
-156.861
-205.67
-253.072
-297.972
-339.55
-377.063
-409.893
-437.554
-459.78
-476.263
-486.783
-491.223
-489.756
-482.824
-471.158
-455.746
-436.887
-413.482
-384.89
-352.957
-320.693
-289.747
-259.732
-229.726
-199.401
-168.71
-137.396
-105.296
-71.5356
-36.9896
2.76612
28.791
164.754
190.102
214.871
237.751
256.336
269.898
277.839
279.671
275.578
266.422
253.392
237.755
220.513
202.494
184.353
166.474
149.041
132.11
115.622
99.4433
83.457
67.5989
51.9433
36.8418
23.1446
11.6643
2.34032
-5.15049
-10.8589
-14.7235
-16.7764
-17.1324
-15.8779
-13.0271
-8.55801
-2.1097
6.86318
21.4362
42.9804
133.842
106.452
74.4111
38.4875
0.107245
-41.4357
-85.0026
-129.463
-174.172
-218.134
-260.425
-300.289
-336.962
-369.772
-398.167
-421.723
-440.048
-453.027
-460.449
-462.314
-458.851
-450.559
-438.126
-421.815
-400.877
-374.843
-345.256
-314.783
-285.062
-255.949
-226.688
-196.99
-166.836
-136.011
-104.357
-71.0153
-36.8243
2.53948
28.8537
158.051
180.542
202.705
223.35
240.291
253.099
261.14
263.857
261.429
254.477
243.909
230.737
215.763
199.691
183.116
166.429
149.866
133.552
117.504
101.663
85.9648
70.385
55.0116
40.1712
26.5799
14.9731
5.4276
-2.29435
-8.24344
-12.3626
-14.6782
-15.2984
-14.3052
-11.7027
-7.45316
-1.19123
7.61533
21.9109
42.5589
128.214
103.494
74.519
42.0322
7.41748
-30.209
-69.8369
-110.487
-151.738
-192.717
-232.64
-270.847
-306.585
-339.173
-368.02
-392.598
-412.462
-427.261
-436.716
-440.696
-439.365
-433.155
-422.622
-408.064
-389.037
-365.195
-337.749
-308.981
-280.455
-252.224
-223.696
-194.618
-164.984
-134.619
-103.406
-70.5187
-36.7635
2.11254
28.7181
150.103
170.397
190.532
209.404
225.035
237.206
245.272
248.645
247.507
242.33
233.82
222.792
209.885
195.673
180.674
165.25
149.655
134.063
118.552
103.128
87.7808
72.528
57.4728
42.9194
29.4784
17.8121
8.09432
0.17011
-6.00382
-10.3732
-12.9482
-13.8158
-13.0447
-10.6343
-6.54326
-0.413648
8.26444
22.2832
42.0562
121.877
99.4005
73.03
43.4975
12.1391
-22.0216
-58.0619
-95.1295
-132.954
-170.797
-207.991
-243.99
-278.113
-309.715
-338.194
-362.991
-383.587
-399.571
-410.681
-416.736
-417.747
-413.967
-405.759
-393.351
-376.482
-354.925
-329.666
-302.674
-275.438
-248.175
-220.457
-192.071
-163.024
-133.165
-102.413
-70.0039
-36.7681
1.51325
28.3445
141.819
160.292
178.743
196.143
210.695
222.305
230.329
234.187
234.044
230.283
223.475
214.289
203.235
190.777
177.349
163.262
148.764
134.05
119.23
104.363
89.4824
74.6417
59.9595
45.7235
32.4716
20.8032
10.9575
2.85993
-3.51707
-8.11833
-10.9367
-12.0451
-11.505
-9.31075
-5.41463
0.536323
9.03233
22.6999
41.5618
115.169
94.5652
70.3799
43.3267
14.708
-16.497
-49.4507
-83.3861
-118.159
-153.128
-187.74
-221.56
-253.982
-284.415
-312.288
-337.029
-358.087
-375.017
-387.444
-395.12
-397.921
-396.016
-389.667
-379.076
-364.109
-344.626
-321.415
-296.147
-270.208
-243.939
-217.055
-189.388
-160.956
-131.638
-101.374
-69.4585
-36.7939
0.823317
27.7143
133.489
150.45
167.494
183.648
197.289
208.395
216.328
220.538
221.161
218.53
213.122
205.497
196.069
185.209
173.273
160.515
147.16
133.397
119.356
105.127
90.7837
76.4091
62.1367
48.2437
35.2132
23.5918
13.6609
5.4178
-1.1431
-5.96325
-9.02132
-10.3707
-10.0618
-8.08054
-4.37372
1.40428
9.71864
23.0215
40.9959
108.409
89.4064
67.0997
42.1872
15.931
-12.7015
-42.9315
-74.0658
-106.047
-138.314
-170.417
-202.009
-232.56
-261.562
-288.481
-312.753
-333.835
-351.244
-364.57
-373.545
-377.946
-377.825
-373.32
-364.57
-351.509
-334.057
-312.855
-289.32
-264.723
-239.496
-213.484
-186.569
-158.784
-130.034
-100.289
-68.8839
-36.8181
0.0889699
26.848
125.344
141.015
156.855
171.942
184.794
195.432
203.242
207.698
208.911
207.182
202.922
196.609
188.59
179.163
168.615
157.148
144.951
132.193
119.008
105.504
91.7776
77.9364
64.1267
50.6162
37.8495
26.3305
16.3657
8.01416
1.29741
-3.72035
-7.00261
-8.58388
-8.50416
-6.74113
-3.23588
2.34818
10.4504
23.3363
40.4034
101.754
84.1349
63.4557
40.3976
16.1923
-10.1975
-38.0384
-66.6982
-96.1698
-125.968
-155.726
-185.179
-213.866
-241.35
-267.153
-290.751
-311.61
-329.242
-343.196
-353.173
-358.864
-360.225
-357.314
-350.222
-338.921
-323.368
-304.081
-282.243
-259.002
-234.85
-209.743
-183.612
-156.504
-128.354
-99.1618
-68.293
-36.8269
-0.698746
25.7809
117.49
132.051
146.845
161.004
173.159
183.361
191.022
195.641
197.307
196.3
192.978
187.767
180.959
172.798
163.519
153.273
142.21
130.474
118.188
105.465
92.4147
79.1606
65.856
52.7612
40.2946
28.925
18.9724
10.5465
3.69835
-1.49881
-4.99414
-6.80218
-6.95046
-5.40631
-2.10542
3.27797
11.1547
23.5989
39.7704
95.3047
78.8985
59.6479
38.2185
15.8084
-8.60645
-34.3322
-60.7837
-87.9962
-115.539
-143.112
-170.516
-197.36
-223.276
-247.84
-270.571
-290.969
-308.552
-322.848
-333.54
-340.279
-342.924
-341.459
-335.92
-326.29
-312.542
-295.089
-274.916
-253.045
-230
-205.831
-180.516
-154.119
-126.599
-97.9891
-67.6962
-36.8216
-1.56012
24.5544
109.994
123.584
137.458
150.793
162.325
172.117
179.612
184.329
186.339
185.909
183.357
179.067
173.295
166.245
158.108
148.997
139.022
128.3
116.934
105.033
92.7087
80.0915
67.3353
54.6947
42.5676
31.3963
21.5052
13.0447
6.09582
0.743282
-2.94768
-4.97156
-5.34305
-4.01944
-0.930417
4.23723
11.8648
23.8305
39.1049
89.1203
73.7845
55.7996
35.8118
14.9882
-7.67682
-31.5231
-56.0017
-81.1809
-106.677
-132.235
-157.717
-182.786
-207.137
-230.407
-252.162
-271.94
-289.277
-303.704
-314.872
-322.426
-326.133
-325.92
-321.781
-313.692
-301.631
-285.918
-267.365
-246.866
-224.952
-201.75
-177.281
-151.626
-124.767
-96.7705
-67.096
-36.8219
-2.50204
23.1927
102.88
115.616
128.667
141.267
152.233
161.64
168.956
173.717
175.988
176.018
174.098
170.578
165.689
159.606
152.488
144.415
135.465
125.728
115.284
104.225
92.6605
80.7168
68.5465
56.3954
44.645
33.7161
23.933
15.4769
8.45732
2.97307
-0.896548
-3.12631
-3.71642
-2.61358
0.259119
5.20076
12.5616
24.0222
38.408
83.2297
68.8491
51.9953
33.2951
13.8847
-7.21864
-29.386
-52.0957
-75.4428
-99.078
-122.785
-146.47
-169.849
-192.67
-214.627
-235.336
-254.37
-271.298
-285.662
-297.095
-305.25
-309.824
-310.695
-307.816
-301.149
-290.661
-276.595
-259.608
-240.473
-219.71
-197.5
-173.905
-149.022
-122.858
-95.5035
-66.4844
-36.8443
-3.51489
21.7016
96.1578
108.13
120.442
132.376
142.826
151.866
158.994
163.763
166.226
166.623
165.223
162.346
158.208
152.963
146.746
139.614
131.618
122.822
113.281
103.069
92.2831
81.0412
69.4885
57.8599
46.5219
35.8782
26.2491
17.838
10.7808
5.19154
1.16344
-1.25881
-2.06015
-1.17741
1.47386
6.17702
13.2507
24.1795
37.6838
77.6459
64.125
48.2895
30.7482
12.6052
-7.09766
-27.7545
-48.8739
-70.5638
-92.5041
-114.514
-136.532
-158.319
-179.671
-200.325
-219.95
-238.162
-254.56
-268.712
-280.239
-288.806
-294.065
-295.851
-294.084
-288.708
-279.674
-267.154
-251.672
-233.884
-214.281
-193.084
-170.39
-146.309
-120.871
-94.1905
-65.8599
-36.8951
-4.58894
20.0907
89.8248
101.106
112.747
124.078
134.05
142.739
149.676
154.42
157.022
157.711
156.737
154.398
150.9
146.381
140.957
134.671
127.552
119.64
110.97
101.594
91.5922
81.0703
70.1604
59.0821
48.1886
37.8695
28.4378
20.1121
13.0509
7.3841
3.21881
0.618366
-0.38597
0.278415
2.70434
7.15828
13.9267
24.3021
36.9361
72.3707
59.6305
44.718
28.2271
11.2269
-7.20954
-26.5017
-46.1837
-66.3709
-86.7683
-107.224
-127.701
-147.996
-167.945
-187.33
-205.862
-223.201
-238.981
-252.799
-264.274
-273.086
-278.868
-281.414
-280.615
-276.4
-268.702
-257.626
-243.581
-227.113
-208.674
-188.507
-166.736
-143.485
-118.805
-92.8299
-65.2196
-36.9706
-5.71408
18.382
83.8699
94.5248
105.552
116.329
125.856
134.21
140.952
145.649
148.347
149.267
148.643
146.756
143.801
139.907
135.18
129.648
123.327
116.238
108.396
99.8332
90.61
80.8149
70.564
60.0599
49.6407
39.6819
30.4883
22.2878
15.2571
9.54179
5.26253
2.50036
1.3031
1.75221
3.94945
8.14354
14.5887
24.3922
36.1686
67.4014
55.3726
41.302
25.7696
9.80651
-7.47959
-25.5343
-43.9105
-62.7313
-81.7238
-100.755
-119.807
-138.71
-157.332
-175.493
-192.945
-209.387
-224.489
-237.878
-249.187
-258.101
-264.259
-267.419
-267.449
-264.265
-257.782
-248.046
-235.365
-220.183
-202.902
-183.776
-162.948
-140.552
-116.659
-91.4235
-64.5662
-37.0664
-6.88538
16.6015
78.2785
88.3612
98.8247
109.088
118.2
126.233
132.777
137.409
140.168
141.271
140.934
139.425
136.933
133.58
129.461
124.6
119.001
112.671
105.607
97.8237
89.3621
80.2911
70.7076
60.7947
50.8741
41.3077
32.3901
24.3529
17.3874
11.6534
7.28466
4.37866
2.9999
3.23811
5.20434
9.12912
15.2351
24.4521
35.3859
62.7294
51.3531
38.0568
23.4004
8.38585
-7.8521
-24.777
-41.9648
-59.5388
-77.2461
-94.9692
-112.709
-130.318
-147.693
-164.686
-181.081
-196.621
-211.006
-223.896
-234.945
-243.84
-250.246
-253.886
-254.615
-252.337
-246.95
-238.449
-227.052
-213.112
-196.978
-178.898
-159.028
-137.512
-114.435
-89.9688
-63.8969
-37.1769
-8.09495
14.7705
73.0335
82.5901
92.5331
102.32
111.04
118.765
125.112
129.664
132.458
133.702
133.602
132.411
130.314
127.426
123.839
119.571
114.621
108.984
102.645
95.6011
87.8756
79.517
70.6018
61.2909
51.8883
42.7415
34.1338
26.2963
19.4303
13.708
9.27517
6.24483
4.69746
4.73058
6.46445
10.1116
15.8635
24.4839
34.5924
58.3432
47.5692
34.986
21.1383
6.99229
-8.28342
-24.1745
-40.2736
-56.7083
-73.2383
-89.761
-106.29
-122.698
-138.903
-154.786
-170.162
-184.807
-198.457
-210.8
-221.515
-230.296
-236.835
-240.836
-242.14
-240.647
-236.239
-228.867
-218.673
-205.926
-190.918
-173.884
-154.985
-134.368
-112.133
-88.4668
-63.2127
-37.301
-9.33623
12.9006
68.1176
77.1875
86.6481
95.9877
104.337
111.77
117.918
122.381
125.186
126.539
126.633
125.71
123.95
121.465
118.342
114.599
110.229
105.221
99.5507
93.2017
86.1793
78.5132
70.2587
61.5548
52.6853
43.9809
35.7127
28.1085
21.3752
15.6948
11.2243
8.09035
6.38863
6.22394
7.7254
11.0879
16.4731
24.4907
33.7936
54.2309
44.0156
32.0928
18.9922
5.64745
-8.74321
-23.6829
-38.7841
-54.1725
-69.6216
-85.0391
-100.45
-115.742
-130.854
-145.689
-160.089
-173.86
-186.77
-198.535
-208.86
-217.449
-224.024
-228.279
-230.048
-229.224
-225.681
-219.335
-210.26
-198.65
-184.741
-168.746
-150.823
-131.123
-109.754
-86.9159
-62.5097
-37.4348
-10.5997
10.9949
63.513
72.1313
81.1415
90.062
98.0605
105.21
111.163
115.527
118.328
119.762
120.016
119.319
117.847
115.71
112.993
109.711
105.859
101.42
96.3623
90.6596
84.3025
77.303
69.6958
61.5972
53.2687
45.0241
37.121
29.7805
23.2115
17.603
13.1214
9.90541
8.0649
7.71105
8.98133
12.0538
17.0617
24.4746
32.9931
50.3792
40.6836
29.3757
16.9691
4.36523
-9.20729
-23.2699
-37.4514
-51.8768
-66.3308
-80.7316
-95.1094
-109.369
-123.46
-137.308
-150.779
-163.703
-175.877
-187.046
-196.942
-205.278
-211.807
-216.222
-218.354
-218.093
-215.308
-209.886
-201.844
-191.31
-178.466
-163.497
-146.553
-127.783
-107.301
-85.3181
-61.7879
-37.5768
-11.8769
9.05438
59.2031
67.3995
75.9879
84.5132
92.1786
99.0564
104.817
109.077
111.858
113.352
113.737
113.231
112.006
110.17
107.807
104.932
101.54
97.6127
93.1137
88.008
82.2749
75.9108
68.9316
61.4299
53.6449
45.8726
38.3555
31.3056
24.9302
19.4227
14.9566
11.681
9.71842
9.18564
10.2274
13.0062
17.6289
24.4392
32.197
46.7753
37.5653
26.8305
15.0712
3.15537
-9.65851
-22.9088
-36.2413
-49.7761
-63.3125
-76.7746
-90.1989
-103.5
-116.641
-129.564
-142.152
-154.262
-165.714
-176.282
-185.72
-193.758
-200.172
-204.668
-207.071
-207.276
-205.147
-200.549
-193.455
-183.932
-172.114
-158.153
-142.184
-124.352
-104.777
-83.672
-61.0434
-37.7222
-13.1566
7.08236
55.1702
62.9711
71.1625
79.3155
86.664
93.2806
98.8509
103.003
105.754
107.29
107.781
107.436
106.423
104.85
102.795
100.28
97.2971
93.8278
89.8347
85.277
80.1248
74.3611
67.9847
61.0664
53.8227
46.5298
39.4146
32.678
26.5229
21.1438
16.7193
13.4069
11.3397
10.6397
11.4569
13.9405
18.1725
24.3865
31.4091
43.4059
34.6502
24.4529
13.2989
2.0229
-10.0844
-22.5808
-35.1258
-47.8378
-60.5244
-73.1187
-85.6595
-98.0716
-110.328
-122.384
-134.139
-145.471
-156.222
-166.191
-175.155
-182.862
-189.106
-193.615
-196.211
-196.791
-195.222
-191.355
-185.124
-176.546
-165.709
-152.73
-137.729
-120.84
-102.185
-81.98
-60.2759
-37.8678
-14.4306
5.08817
51.3972
58.8271
66.6446
74.4448
81.4918
87.8572
93.2406
97.2809
99.9924
101.557
102.135
101.927
101.097
99.751
97.9672
95.7673
93.1471
90.0877
86.5511
82.494
77.8791
72.6785
66.8762
60.5231
53.8126
47.0011
40.299
33.8942
27.9829
22.758
18.4005
15.074
12.9204
12.0663
12.6646
14.8534
18.6924
24.32
30.6351
40.2581
31.9294
22.2365
11.6502
0.972254
-10.476
-22.2702
-34.084
-46.0317
-57.9321
-69.7225
-81.4449
-93.0314
-104.464
-115.708
-126.679
-137.271
-147.346
-156.724
-165.207
-172.561
-178.592
-183.057
-185.777
-186.651
-185.555
-182.33
-176.879
-169.179
-159.272
-147.247
-133.2
-117.254
-99.5291
-80.2413
-59.4814
-38.0067
-15.688
3.08753
47.8694
54.9492
62.4141
69.8806
76.6391
82.7615
87.9621
91.8892
94.5555
96.1363
96.7844
96.6918
96.0202
94.8722
93.3258
91.4043
89.1055
86.4118
83.2863
79.6838
75.5627
70.8866
65.6271
59.8167
53.6269
47.2935
41.0104
34.9519
29.3044
24.2567
19.9903
16.6722
14.4505
13.4566
13.8436
15.7401
19.1867
24.2414
29.8785
37.319
29.3927
20.175
10.1221
0.00499994
-10.8273
-21.9656
-33.0978
-44.3354
-55.5054
-66.5498
-77.5121
-88.3323
-98.999
-109.484
-119.718
-129.609
-139.035
-147.838
-155.838
-162.825
-168.612
-172.985
-175.769
-176.867
-176.165
-173.499
-168.748
-161.857
-152.83
-141.722
-128.611
-113.603
-96.8148
-78.459
-58.6584
-38.1339
-16.9199
1.09831
44.5719
51.3216
58.4527
65.6009
72.0835
77.972
82.9942
86.8082
89.4236
91.0105
91.7151
91.7213
91.1866
90.2117
88.8736
87.1976
85.1832
82.8155
80.0585
76.8677
73.1982
69.0074
64.2572
58.9644
53.2786
47.4162
41.5537
35.851
30.4837
25.634
21.4809
18.1928
15.9221
14.8035
14.9883
16.5975
19.6553
24.154
29.1443
34.5769
27.0309
18.2613
8.71073
-0.880028
-11.1343
-21.6589
-32.1551
-42.7306
-53.2205
-63.572
-73.8279
-83.9352
-93.8885
-103.666
-113.207
-122.435
-131.243
-139.489
-147.013
-153.623
-159.145
-163.389
-166.186
-167.448
-167.068
-164.883
-160.756
-154.606
-146.404
-136.177
-123.977
-109.897
-94.0478
-76.632
-57.8035
-38.2412
-18.1158
-0.863729
41.491
47.9283
54.7424
61.5874
67.806
73.469
78.317
82.0182
84.5791
86.1645
86.9142
87.0043
86.5884
85.7652
84.6103
83.1505
81.3883
79.3105
76.8838
74.0643
70.8059
67.0617
62.7863
57.9828
52.7817
47.3788
41.934
36.5927
31.518
26.8836
22.8641
19.6266
17.3257
16.0979
16.0913
17.4206
20.0962
24.0589
28.4351
32.0206
24.8338
16.4884
7.4117
-1.68328
-11.3949
-21.3441
-31.2449
-41.2022
-51.0578
-60.7642
-70.3633
-79.808
-89.0959
-98.2124
-107.105
-115.708
-123.927
-131.638
-138.696
-144.928
-150.17
-154.256
-157.024
-158.396
-158.275
-156.502
-152.928
-147.451
-140.019
-130.63
-119.316
-106.149
-91.2341
-74.7652
-56.9146
-38.323
-19.2676
-2.78455
38.6134
44.7546
51.2676
57.8233
63.7887
69.235
73.9129
77.5017
80.0053
81.5831
82.3684
82.5301
82.2174
81.5273
80.5339
79.2656
77.7268
75.9071
73.7752
71.2895
68.4037
65.0688
61.2335
56.8905
52.1512
47.1928
42.1587
37.1801
32.4067
28.0019
24.1336
20.9663
18.6537
17.3329
17.1474
18.2063
20.5096
23.9586
27.7552
29.639
22.7931
14.8486
6.2206
-2.40773
-11.6078
-21.0163
-30.3601
-39.7384
-49.0021
-58.1067
-67.0945
-75.9213
-84.5901
-93.0889
-101.374
-109.389
-117.051
-124.249
-130.854
-136.71
-141.663
-145.57
-148.276
-149.713
-149.796
-148.37
-145.283
-140.416
-133.698
-125.103
-114.641
-102.37
-88.3807
-72.8581
-55.9885
-38.3721
-20.3645
-4.65294
35.9266
41.7873
48.0135
54.2927
60.0154
65.2525
69.765
73.2427
75.687
77.2521
78.0654
78.2881
78.0659
77.4927
76.6419
75.5427
74.2021
72.6114
70.7428
68.5563
66.0072
63.0458
59.6167
55.7034
51.4013
46.8694
42.2358
37.6172
33.1497
28.9854
25.2839
22.204
19.8973
18.5001
18.1493
18.9496
20.8933
23.8538
27.1056
27.4215
20.899
13.335
5.13196
-3.05534
-11.7739
-20.6732
-29.4933
-38.3296
-47.0399
-55.5821
-63.9995
-72.2513
-80.3418
-88.2644
-95.9814
-103.443
-110.579
-117.289
-123.457
-128.943
-133.604
-137.315
-139.935
-141.4
-141.638
-140.503
-137.84
-133.523
-127.463
-119.616
-109.972
-98.5721
-85.4965
-70.915
-55.0239
-38.3806
-21.3989
-6.45621
33.4194
39.0131
44.9661
50.9803
56.4705
61.5058
65.8578
69.2257
71.6095
73.1581
73.9926
74.2676
74.1244
73.6548
72.9296
71.9805
70.8155
69.4284
67.7942
65.8759
63.6305
61.008
57.9515
54.4374
50.5464
46.421
42.1746
37.91
33.7497
29.8334
26.3109
23.3343
21.0504
19.593
19.0921
19.6478
21.2474
23.7462
26.4896
25.3586
19.1433
11.9408
4.14057
-3.62994
-11.8928
-20.3127
-28.6405
-36.9677
-45.1593
-53.1763
-61.0607
-68.7757
-76.3274
-83.7121
-90.8973
-97.8411
-104.479
-110.726
-116.475
-121.601
-125.971
-129.477
-131.988
-133.451
-133.804
-132.91
-130.615
-126.79
-121.335
-114.187
-105.324
-94.7682
-82.5874
-68.9382
-54.0174
-38.3425
-22.361
-8.18288
31.0806
36.42
42.112
47.8732
53.1399
57.9806
62.1769
65.4368
67.7595
69.2881
70.1386
70.4583
70.3841
70.0061
69.3927
68.5765
67.5675
66.3611
64.9356
63.2569
61.2842
58.9684
56.2525
53.1074
49.6008
45.86
41.9849
38.0649
34.2093
30.5452
27.2114
24.3514
22.1059
20.6044
19.9693
20.2962
21.5695
23.6353
25.9067
23.4407
17.5176
10.6588
3.24118
-4.13437
-11.9671
-19.9342
-27.7982
-35.6473
-43.3527
-50.8778
-58.264
-65.4778
-72.5261
-79.4084
-86.0966
-92.5546
-98.7256
-104.532
-109.881
-114.66
-118.743
-122.037
-124.425
-125.862
-126.294
-125.598
-123.622
-120.235
-115.332
-108.837
-100.715
-90.9718
-79.664
-66.9314
-52.9687
-38.2517
-23.2438
-9.82152
28.8999
33.997
39.4398
44.9582
50.0104
54.6635
58.7083
61.863
64.1243
65.6305
66.4919
66.8499
66.8366
66.5394
66.0253
65.3272
64.4567
63.4109
62.171
60.7063
58.9778
56.939
54.533
51.727
48.5779
45.1987
41.6768
38.0897
34.5335
31.1225
27.9841
25.252
23.0592
21.5293
20.7765
20.8923
21.8597
23.5224
25.3588
21.659
16.0142
9.48248
2.42851
-4.57309
-11.998
-19.5374
-26.9649
-34.3641
-41.6126
-48.6769
-55.5969
-62.342
-68.9201
-75.3333
-81.5569
-87.5596
-93.2914
-98.6834
-103.652
-108.095
-111.899
-114.98
-117.235
-118.626
-119.11
-118.572
-116.87
-113.873
-109.471
-103.583
-96.1595
-87.1951
-76.7334
-64.8978
-51.8761
-38.1018
-24.0398
-11.3627
26.8674
31.7337
36.9379
42.2235
47.0696
51.5417
55.44
58.4916
60.6914
62.1734
63.0422
63.433
63.4732
63.2475
62.8215
62.2286
61.4809
60.5779
59.5033
58.2288
56.719
54.9293
52.8045
50.3091
47.4904
44.4489
41.2608
37.9923
34.7273
31.5675
28.6285
26.033
23.9054
22.362
21.5086
21.4318
22.1154
23.4062
24.8438
20.005
14.6253
8.4054
1.69726
-4.94902
-11.9879
-19.1227
-26.1376
-33.1133
-39.9325
-46.5648
-53.0483
-59.3551
-65.4944
-71.469
-77.2582
-82.8346
-88.1544
-93.1558
-97.7633
-101.886
-105.419
-108.289
-110.406
-111.736
-112.248
-111.837
-110.368
-107.715
-103.769
-98.4407
-91.6738
-83.4517
-73.8054
-62.8425
-50.7391
-37.8889
-24.7428
-12.7965
24.9741
29.6199
34.5959
39.6581
44.3061
48.6038
52.3601
55.3107
57.4499
58.9061
59.779
60.1974
60.2846
60.1228
59.7752
59.2757
58.6373
57.861
56.9331
55.8282
54.5136
52.9475
51.0767
48.8645
46.35
43.622
40.7473
37.7816
34.7974
31.8843
29.1458
26.6934
24.6418
23.0992
22.1624
21.9128
22.3363
23.2868
24.3623
18.4706
13.3441
7.42124
1.04248
-5.26664
-11.9391
-18.6908
-25.3166
-31.8923
-38.3079
-44.5344
-50.6087
-56.5053
-62.2343
-67.7995
-73.1829
-78.3607
-83.2945
-87.9282
-92.1949
-96.0118
-99.2858
-101.948
-103.923
-105.183
-105.704
-105.392
-104.122
-101.773
-98.237
-93.4244
-87.2716
-79.7528
-70.8883
-60.7692
-49.5582
-37.6076
-25.3472
-14.1164
23.2113
27.6465
32.4039
37.2519
41.7092
45.8387
49.4573
52.3097
54.3888
55.8179
56.6921
57.1341
57.2626
57.1575
56.8799
56.4634
55.9221
55.2585
54.4607
53.5066
52.3659
51.0001
49.3581
47.403
45.1672
42.7292
40.1467
37.4665
34.7507
32.0773
29.5378
27.2328
25.2661
23.7373
22.7339
22.3319
22.5198
23.162
23.9108
17.0485
12.1633
6.52415
0.45903
-5.5293
-11.8545
-18.2434
-24.5006
-30.6998
-36.7351
-42.5803
-48.2711
-53.7838
-59.1288
-64.3111
-69.3153
-74.1205
-78.6927
-82.9817
-86.9272
-90.4545
-93.4801
-95.9416
-97.7738
-98.9565
-99.4716
-99.2364
-98.1351
-96.0535
-92.8873
-88.5473
-82.9663
-76.1107
-67.9914
-58.6837
-48.3342
-37.2564
-25.8497
-15.3159
21.5707
25.8045
30.3527
34.9947
39.2687
43.2361
46.7213
49.4782
51.4978
52.8989
53.7723
54.234
54.3992
54.3444
54.1293
53.7864
53.3317
52.7677
52.0857
51.265
50.2794
49.0923
47.6559
45.9336
43.952
41.7805
39.4688
37.0562
34.5949
32.1522
29.8085
27.6527
25.7781
24.2747
23.2216
22.6879
22.6656
23.0313
23.4885
15.7313
11.077
5.70827
-0.0577844
-5.74139
-11.7361
-17.781
-23.6902
-29.5336
-35.2107
-40.6975
-46.0283
-51.1812
-56.1673
-60.992
-65.6419
-70.0988
-74.3327
-78.2986
-81.9423
-85.1964
-87.9855
-90.2536
-91.9455
-93.0466
-93.5451
-93.3682
-92.4094
-90.5625
-87.7283
-83.8202
-78.7689
-72.5358
-65.1227
-56.5906
-47.0686
-36.833
-26.247
-16.3912
20.0448
24.086
28.4334
32.8779
36.9756
40.7863
44.1425
46.806
48.7674
50.14
51.0104
51.4888
51.6858
51.676
51.516
51.2396
50.861
50.386
49.8058
49.1042
48.2557
47.228
45.976
44.4637
42.7129
40.7852
38.7234
36.5596
34.3378
32.1153
29.9618
27.955
26.1778
24.7103
23.6232
22.9783
22.7712
22.892
23.0907
14.5125
10.0784
4.96821
-0.512807
-5.90598
-11.5873
-17.3059
-22.8854
-28.3928
-33.7324
-38.8819
-43.8748
-48.6906
-53.3406
-57.831
-62.1501
-66.2819
-70.1997
-73.8633
-77.2241
-80.2209
-82.7861
-84.8695
-86.4251
-87.4428
-87.9166
-87.7826
-86.944
-85.3031
-82.7669
-79.2521
-74.6899
-69.0379
-62.2909
-54.4958
-45.7643
-36.3366
-26.5379
-17.3387
18.6263
22.4831
26.6383
30.8927
34.8207
38.4804
41.7117
44.2845
46.1882
47.5318
48.3975
48.8898
49.115
49.1449
49.0344
48.8162
48.506
48.1092
47.6199
47.0231
46.2966
45.4106
44.3229
42.9995
41.4577
39.752
37.9193
35.9858
33.9878
31.9737
30.0032
28.1438
26.4673
25.0448
23.9384
23.2026
22.8363
22.7429
22.7159
13.3856
9.16232
4.2987
-0.9102
-6.02743
-11.4103
-16.8195
-22.0871
-27.2765
-32.2978
-37.1302
-41.8058
-46.3056
-50.6411
-54.8191
-58.829
-62.6574
-66.2803
-69.6615
-72.7572
-75.5129
-77.8671
-79.7754
-81.1995
-82.1336
-82.5774
-82.4744
-81.7374
-80.2769
-78.0075
-74.85
-70.7375
-65.6258
-59.503
-52.4045
-44.4242
-35.7679
-26.7216
-18.1574
17.3082
20.9887
24.9592
29.0312
32.7958
36.3099
39.4201
41.9047
43.7519
45.0662
45.9254
46.4289
46.6787
46.7439
46.6774
46.5113
46.2614
45.934
45.5248
45.0207
44.4022
43.6416
42.7007
41.5465
40.1931
38.6888
37.0651
35.3433
33.553
31.7347
29.9389
28.2231
26.6494
25.2792
24.167
23.3595
22.8587
22.5809
22.3585
12.3445
8.32254
3.6949
-1.25446
-6.10866
-11.2081
-16.3234
-21.2952
-26.1846
-30.9057
-35.4395
-39.8169
-44.0204
-48.0618
-51.9476
-55.6691
-59.2144
-62.5621
-65.6799
-68.5282
-71.058
-73.2143
-74.9574
-76.2559
-77.1083
-77.5185
-77.437
-76.7858
-75.4838
-73.4529
-70.6191
-66.919
-62.307
-56.7668
-50.3229
-43.0522
-35.1288
-26.7996
-18.8467
16.0843
19.5958
23.3892
27.2857
30.8932
34.2667
37.2598
39.6585
41.4502
42.7348
43.5862
44.0986
44.3697
44.4661
44.4387
44.3187
44.1222
43.8562
43.5177
43.0954
42.572
41.9228
41.1122
40.1092
38.925
37.6025
36.1688
34.6406
33.0419
31.4061
29.7754
28.1985
26.728
25.4163
24.3103
23.4497
22.8383
22.4045
22.0164
11.3837
7.55439
3.15195
-1.5496
-6.15355
-10.9829
-15.8194
-20.5113
-25.1166
-29.5544
-33.807
-37.9043
-41.8301
-45.596
-49.209
-52.6613
-55.9427
-59.0341
-61.9064
-64.5242
-66.8432
-68.8144
-70.4024
-71.5821
-72.3557
-72.7302
-72.6632
-72.0846
-70.9219
-69.1041
-66.5633
-63.2394
-59.0878
-54.0884
-48.2563
-41.6526
-34.4221
-26.7737
-19.4082
14.9482
18.298
21.9215
25.6494
29.1055
32.3434
35.223
37.5381
39.2754
40.5301
41.3724
41.8915
42.1809
42.3048
42.3119
42.2328
42.0836
41.8717
41.5954
41.2452
40.8057
40.2547
39.5596
38.6912
37.6586
36.4996
35.2376
33.8855
32.4624
30.9957
29.5201
28.0762
26.7079
25.4593
24.3699
23.473
22.7736
22.2108
21.6837
10.4977
6.85246
2.66551
-1.79962
-6.16492
-10.7379
-15.3093
-19.7358
-24.0726
-28.2431
-32.2312
-36.0652
-39.7305
-43.2386
-46.5965
-49.7976
-52.8332
-55.686
-58.33
-60.7332
-62.856
-64.6547
-66.098
-67.166
-67.8643
-68.2027
-68.1448
-67.6279
-66.5877
-64.9603
-62.6839
-59.7027
-55.9735
-51.4737
-46.2105
-40.2306
-33.6518
-26.6475
-19.8437
13.8946
17.0892
20.5499
24.1155
27.4258
30.5328
33.3026
35.5364
37.2202
38.4449
39.2769
39.8006
40.1057
40.2536
40.2912
40.248
40.1404
39.9762
39.7546
39.4676
39.1019
38.6373
38.0442
37.2956
36.3982
35.3858
34.2783
33.0855
31.8226
30.5114
29.1805
27.8628
26.5947
25.4125
24.349
23.4312
22.6648
21.9982
21.3582
9.68144
6.21245
2.23124
-2.00812
-6.14634
-10.475
-14.7948
-18.9701
-23.0529
-26.971
-30.7098
-34.2964
-37.7175
-40.9843
-44.1041
-47.071
-49.8775
-52.5083
-54.9402
-57.1442
-59.0849
-60.7232
-62.032
-62.9959
-63.6231
-63.9259
-63.873
-63.4089
-62.4766
-61.0193
-58.9812
-56.3112
-52.9682
-48.9277
-44.1908
-38.7912
-32.8224
-26.4252
-20.158
12.9177
15.9638
19.2681
22.6778
25.8476
28.8282
31.4917
33.6465
35.2776
36.4721
37.2927
37.8193
38.1375
38.3063
38.3704
38.3589
38.2879
38.1655
37.9918
37.7602
37.459
37.0704
36.5673
35.9245
35.1476
34.266
33.2968
32.2477
31.13
29.9612
28.7642
27.5655
26.3946
25.2809
24.2508
23.3257
22.5114
21.7641
21.0341
8.93015
5.62953
1.84529
-2.17875
-6.10017
-10.1969
-14.2778
-18.2146
-22.0573
-25.7373
-29.2413
-32.5956
-35.7876
-38.8287
-41.726
-44.4746
-47.0681
-49.4928
-51.7276
-53.747
-55.5188
-57.0088
-58.1929
-59.0602
-59.621
-59.8893
-59.8388
-59.4201
-58.5831
-57.2777
-55.4543
-53.0662
-50.0746
-46.4549
-42.2025
-37.3399
-31.9396
-26.1125
-20.355
12.0125
14.9163
18.0706
21.3303
24.3648
27.2235
29.784
31.8616
33.4412
34.6055
35.4137
35.9412
36.2701
36.4568
36.5442
36.5604
36.5213
36.4354
36.3035
36.1203
35.8755
35.5533
35.1294
34.5803
33.91
33.1446
32.299
31.3787
30.3921
29.3529
28.279
27.1918
26.1143
25.07
24.0794
23.1592
22.3143
21.5075
20.7096
8.23929
5.09992
1.50374
-2.31464
-6.03
-9.90557
-13.7596
-17.4707
-21.0861
-24.5415
-27.8245
-30.9603
-33.9378
-36.7676
-39.4573
-42.0024
-44.3978
-46.631
-48.6834
-50.5317
-52.1475
-53.5005
-54.5697
-55.3479
-55.847
-56.0827
-56.0326
-55.6534
-54.9009
-53.7313
-52.1008
-49.9673
-47.2949
-44.0587
-40.2503
-35.8825
-31.0093
-25.7154
-20.4411
11.1742
13.9417
16.9521
20.0675
22.9716
25.7125
28.1732
30.176
31.7048
32.8386
33.6335
34.1604
34.4978
34.6997
34.8071
34.8473
34.8361
34.7818
34.6862
34.545
34.3494
34.0853
33.7308
33.2641
32.6879
32.0255
31.2898
30.4846
29.6158
28.6939
27.7328
26.7492
25.7608
24.7858
23.8395
22.9342
22.0739
21.2267
20.3794
7.60464
4.61942
1.20309
-2.41906
-5.93782
-9.60335
-13.242
-16.739
-20.1397
-23.383
-26.4579
-29.3885
-32.1648
-34.7972
-37.2932
-39.6489
-41.8601
-43.9158
-45.7992
-47.4895
-48.9614
-50.1881
-51.1517
-51.8478
-52.2903
-52.4956
-52.445
-52.1002
-51.4227
-50.3745
-48.9173
-47.0134
-44.6297
-41.742
-38.3386
-34.4246
-30.0382
-25.241
-20.4223
10.3984
13.0353
15.9075
18.8842
21.6627
24.2899
26.6539
28.5836