/*--------------------------------*- C++ -*----------------------------------*\
| =========                 |                                                 |
| \\      /  F ield         | OpenFOAM: The Open Source CFD Toolbox           |
|  \\    /   O peration     | Version:  2312                                  |
|   \\  /    A nd           | Website:  www.openfoam.com                      |
|    \\/     M anipulation  |                                                 |
\*---------------------------------------------------------------------------*/
FoamFile
{
    version     2.0;
    format      ascii;
    arch        "LSB;label=32;scalar=64";
    class       surfaceScalarField;
    location    "100";
    object      phi;
}
// * * * * * * * * * * * * * * * * * * * * * * * * * * * * * * * * * * * * * //

dimensions      [0 3 -1 0 0 0 0];

oriented        oriented;

internalField   nonuniform List<scalar> 
21254
(
-0.190817
0.211021
-0.0202029
0.233464
-0.0224432
0.253582
-0.020118
0.271966
-0.0183847
0.289562
-0.017595
0.304279
-0.0147178
0.316451
-0.0121712
0.326717
-0.010265
0.334182
-0.00746492
0.339729
-0.00554751
0.343519
-0.00379035
0.345403
-0.00188367
0.345649
-0.000246154
0.343799
0.00185008
0.339361
0.00443821
0.332303
0.00705797
0.322082
0.010221
0.308339
0.013743
0.290371
0.0179681
0.267768
0.0226029
0.239772
0.0279967
0.207518
0.0322536
0.174472
0.0330463
0.148731
0.0257416
0.137385
0.0113468
0.138893
-0.00150822
0.146401
-0.0075053
0.15469
-0.00828692
0.160979
-0.00628892
0.164294
-0.00331744
0.164159
0.000146223
0.160572
0.00358876
0.154235
0.00634548
0.145435
0.0088177
0.133745
0.0116912
0.117927
0.0157988
0.0961555
0.0218246
0.0633461
0.0328184
0.0695516
-0.00612435
-0.167775
-0.0230426
-0.143664
-0.024111
-0.114721
-0.0289425
-0.0834847
-0.0312365
-0.0509534
-0.0325316
-0.0179216
-0.033032
0.0139722
-0.0318938
0.0439164
-0.0299438
0.0709719
-0.0270552
0.0944759
-0.0235037
0.114244
-0.0197679
0.130677
-0.0164325
0.14425
-0.0135728
0.155401
-0.0111508
0.164877
-0.00947586
0.17295
-0.00807275
0.180094
-0.00714416
0.186516
-0.0064212
0.192511
-0.00599501
0.198175
-0.00566339
0.203663
-0.00548801
0.208937
-0.00527407
0.213902
-0.00496625
0.217857
-0.00395706
0.220629
-0.00277441
0.222576
-0.00194881
0.223778
-0.00120302
0.224498
-0.000721532
0.224833
-0.000336111
0.224698
0.000131017
0.223889
0.00080675
0.222361
0.00152536
0.220113
0.00224327
0.217181
0.00292878
0.213475
0.00369927
0.20867
0.00480029
0.201831
0.00683076
0.18815
0.0136471
0.169614
0.0185545
-0.17414
0.195387
-0.0414495
0.217245
-0.0443012
0.240266
-0.0431381
0.261914
-0.0400336
0.283183
-0.0388641
0.303162
-0.0346958
0.321392
-0.0304008
0.338121
-0.0269942
0.352985
-0.0223286
0.366032
-0.0185949
0.377324
-0.0150815
0.386901
-0.0114616
0.395126
-0.00847047
0.402545
-0.00556854
0.409349
-0.00236601
0.415232
0.00117528
0.420019
0.00543337
0.423572
0.0101909
0.425035
0.0165054
0.423981
0.0236569
0.418951
0.0330276
0.408857
0.0423485
0.392535
0.0493693
0.370734
0.0475434
0.346635
0.0354474
0.322555
0.0225731
0.299178
0.015873
0.277104
0.0137898
0.257092
0.0137245
0.239975
0.0138004
0.225932
0.0141992
0.214035
0.0154903
0.202509
0.0178813
0.190012
0.02133
0.175529
0.026187
0.15732
0.034005
0.134249
0.0449442
0.0968285
0.0702362
0.0742345
0.0164757
-0.152541
-0.0446422
-0.129404
-0.0472474
-0.102356
-0.0559902
-0.0738383
-0.0597542
-0.043615
-0.0627552
-0.0120503
-0.0645969
0.0193422
-0.0632861
0.0483097
-0.058911
0.0744017
-0.0531469
0.0975295
-0.0466311
0.117555
-0.0397935
0.134837
-0.0337142
0.149755
-0.0284899
0.162528
-0.0239243
0.17365
-0.020597
0.183416
-0.0178387
0.192118
-0.0158458
0.200067
-0.01437
0.207516
-0.0134437
0.214561
-0.012708
0.22136
-0.012287
0.227974
-0.0118884
0.23432
-0.0113135
0.239907
-0.00954632
0.244442
-0.0073123
0.248109
-0.00561803
0.250776
-0.00387264
0.252346
-0.002293
0.252814
-0.000804592
0.252345
0.00059536
0.251166
0.00198299
0.249429
0.00325921
0.247158
0.00450837
0.244367
0.00571478
0.240981
0.00707665
0.236717
0.00905652
0.231576
0.0119602
0.221157
0.024032
0.204173
0.0355509
-0.16937
0.191105
-0.0631859
0.213139
-0.066335
0.237011
-0.0670108
0.258977
-0.0619989
0.280058
-0.0599449
0.300362
-0.0549988
0.318613
-0.0486518
0.335179
-0.0435595
0.349627
-0.0367762
0.362155
-0.0311231
0.372772
-0.0256991
0.38162
-0.0203095
0.388465
-0.0153153
0.393676
-0.0107795
0.396972
-0.0056623
0.399071
-0.000923566
0.400027
0.00447751
0.400598
0.00961952
0.401023
0.01608
0.401927
0.0227533
0.403853
0.0311023
0.40665
0.0395507
0.408942
0.0470775
0.40809
0.0483955
0.402872
0.0406652
0.394038
0.031407
0.382564
0.0273478
0.368423
0.0279316
0.351027
0.0311197
0.330191
0.0346334
0.306945
0.0374518
0.283169
0.0392667
0.260458
0.0405957
0.238997
0.0428026
0.21755
0.04763
0.193743
0.0577953
0.165859
0.0728518
0.125123
0.110981
0.0842151
0.057432
-0.147573
-0.0664377
-0.123916
-0.0709046
-0.0957384
-0.0841677
-0.066571
-0.088922
-0.0362362
-0.0930901
-0.00483873
-0.0959943
0.0259904
-0.0941149
0.0544124
-0.0873327
0.0802838
-0.0790179
0.103493
-0.0698398
0.12377
-0.0600703
0.141352
-0.0512961
0.156614
-0.0437522
0.169843
-0.0371528
0.181367
-0.0321206
0.191551
-0.0280227
0.200663
-0.0249576
0.208976
-0.0226826
0.216695
-0.0211619
0.22398
-0.0199929
0.231016
-0.0193231
0.237803
-0.0186756
0.244223
-0.0177344
0.249956
-0.0152808
0.254698
-0.0120555
0.258573
-0.00949452
0.261651
-0.00695246
0.263969
-0.00461135
0.265595
-0.00243215
0.266531
-0.000343606
0.266828
0.00168353
0.26644
0.00364538
0.265368
0.00557642
0.263541
0.0075388
0.260876
0.00973625
0.257038
0.0128919
0.251704
0.0172867
0.241302
0.0344097
0.223977
0.0528891
-0.163738
0.186304
-0.0857508
0.209064
-0.0890956
0.23417
-0.0921162
0.257158
-0.0849873
0.279572
-0.0823578
0.301189
-0.0766152
0.321131
-0.0685932
0.339283
-0.0617117
0.35581
-0.0533027
0.370484
-0.0457976
0.383423
-0.0386385
0.394619
-0.0315056
0.404083
-0.024779
0.411851
-0.0185471
0.418241
-0.0120527
0.422999
-0.00568169
0.426121
0.00135606
0.427299
0.00844179
0.426768
0.0166116
0.424528
0.0249939
0.421083
0.0345476
0.417299
0.0433361
0.413708
0.0506694
0.41003
0.0520744
0.405264
0.0454319
0.399324
0.0373489
0.392782
0.0338911
0.386062
0.0346547
0.378807
0.0383766
0.369908
0.0435336
0.357858
0.0495102
0.341171
0.0559594
0.319463
0.0623124
0.293846
0.0684349
0.265907
0.0755817
0.235492
0.08821
0.201246
0.107139
0.15559
0.156636
0.102257
0.110761
-0.141441
-0.0887356
-0.117641
-0.0947039
-0.0888199
-0.112989
-0.0593339
-0.118408
-0.028716
-0.123708
0.00296336
-0.127674
0.0338329
-0.124984
0.0621626
-0.115662
0.0878295
-0.104684
0.110886
-0.0928958
0.131067
-0.0802506
0.148684
-0.0689129
0.16416
-0.0592281
0.177746
-0.050739
0.189786
-0.0441595
0.200503
-0.0387398
0.210221
-0.0346754
0.219115
-0.0315756
0.227421
-0.0294682
0.235276
-0.027847
0.242786
-0.0268334
0.250013
-0.0259028
0.256883
-0.0246058
0.263054
-0.0214539
0.268267
-0.0172713
0.272591
-0.0138214
0.276082
-0.0104456
0.27879
-0.00732145
0.280751
-0.00439471
0.282034
-0.00163023
0.282669
0.00104528
0.282669
0.00364077
0.282028
0.00621149
0.280729
0.00883166
0.278644
0.011811
0.275408
0.0161186
0.270465
0.022215
0.260597
0.0442447
0.242289
0.071205
-0.160934
0.184373
-0.10919
0.208049
-0.112771
0.234549
-0.118616
0.258305
-0.108743
0.28168
-0.105731
0.30431
-0.0992451
0.325049
-0.0893313
0.344046
-0.0807092
0.361544
-0.0708003
0.376926
-0.0611803
0.390553
-0.0522657
0.402352
-0.0433048
0.412558
-0.0349849
0.420855
-0.0268445
0.427407
-0.0186047
0.43221
-0.0104845
0.435387
-0.00182048
0.437073
0.0067554
0.437128
0.0165569
0.435888
0.0262337
0.433302
0.0371336
0.429568
0.0470701
0.424854
0.055383
0.419063
0.0578656
0.412045
0.0524493
0.404078
0.0453159
0.395817
0.0421528
0.387845
0.0426262
0.380403
0.0458173
0.373538
0.0503957
0.36694
0.0561135
0.359616
0.0632832
0.349575
0.0723563
0.334064
0.0839575
0.310933
0.0987057
0.279732
0.11939
0.240791
0.146101
0.189775
0.20766
0.127727
0.17285
-0.137598
-0.112071
-0.113072
-0.11923
-0.0830074
-0.143054
-0.0526432
-0.148772
-0.0212457
-0.155106
0.0111076
-0.160027
0.042478
-0.156354
0.0710514
-0.144235
0.0967688
-0.130401
0.119836
-0.115963
0.139985
-0.100399
0.157622
-0.0865499
0.173234
-0.07484
0.187037
-0.0645411
0.199367
-0.0564899
0.210502
-0.0498742
0.220626
-0.0447988
0.229932
-0.0408816
0.238627
-0.0381634
0.246854
-0.0360728
0.254699
-0.0346792
0.262204
-0.0334072
0.269322
-0.0317245
0.275762
-0.0278945
0.281251
-0.0227623
0.28583
-0.0184015
0.289541
-0.0141578
0.292435
-0.010216
0.294535
-0.00649553
0.295873
-0.00297114
0.296506
0.000410346
0.296501
0.00364414
0.295865
0.00684442
0.294585
0.0101105
0.292636
0.0137545
0.289689
0.0190646
0.28522
0.0266786
0.276669
0.0527785
0.258875
0.0890076
-0.158798
0.183247
-0.133639
0.208171
-0.137695
0.236012
-0.146456
0.260894
-0.133625
0.285223
-0.13006
0.309101
-0.123122
0.330709
-0.110939
0.350838
-0.100839
0.369204
-0.0891663
0.385669
-0.0776452
0.400466
-0.0670629
0.413418
-0.0562572
0.424719
-0.0462861
0.434351
-0.0364759
0.442189
-0.0264428
0.448526
-0.0168219
0.45306
-0.00635392
0.455854
0.00396107
0.457035
0.015377
0.456468
0.0268015
0.454278
0.0393237
0.450733
0.0506165
0.445852
0.0602655
0.439547
0.0641715
0.431717
0.0602806
0.422648
0.0543865
0.412914
0.0518888
0.402995
0.0525471
0.393101
0.0557137
0.383369
0.0601297
0.374087
0.0654046
0.365464
0.0719115
0.357516
0.0803147
0.349219
0.0922714
0.337234
0.110704
0.315877
0.140748
0.280415
0.181608
0.227245
0.260832
0.159389
0.240703
-0.134489
-0.13638
-0.109117
-0.144603
-0.0777067
-0.174465
-0.046173
-0.180306
-0.0137285
-0.18755
0.0196205
-0.193375
0.0518207
-0.188554
0.0808892
-0.173303
0.106859
-0.156371
0.130034
-0.139137
0.150204
-0.120569
0.167807
-0.104152
0.183436
-0.0904687
0.19736
-0.0784647
0.209887
-0.0690172
0.221287
-0.0612734
0.23173
-0.0552418
0.241432
-0.0505833
0.250523
-0.0472534
0.259141
-0.0446908
0.267382
-0.0429201
0.275264
-0.0412893
0.282726
-0.0391875
0.289576
-0.034747
0.295473
-0.0286605
0.300408
-0.0233401
0.304483
-0.0182352
0.30769
-0.0134255
0.310075
-0.00888154
0.311669
-0.0045696
0.312521
-0.000445212
0.312658
0.0035029
0.312084
0.00741211
0.310832
0.0113568
0.30876
0.0158164
0.305644
0.0221709
0.300812
0.031495
0.292407
0.0611557
0.274924
0.106492
-0.157682
0.183437
-0.159394
0.209422
-0.163678
0.238805
-0.175839
0.264921
-0.15974
0.290453
-0.155591
0.315368
-0.148036
0.338062
-0.133633
0.358978
-0.121756
0.378289
-0.108477
0.395588
-0.0949448
0.411114
-0.0825896
0.424987
-0.0701299
0.437081
-0.0583807
0.447459
-0.0468533
0.45617
-0.0351539
0.463059
-0.0237109
0.468277
-0.0115721
0.471729
0.000508707
0.473505
0.0136011
0.473613
0.0266936
0.472184
0.0407535
0.46933
0.0534702
0.465246
0.0643497
0.459646
0.0697709
0.452431
0.0674958
0.443754
0.0630631
0.434116
0.0615265
0.423945
0.0627174
0.413403
0.0662535
0.402437
0.0710915
0.391114
0.0767321
0.379609
0.0834152
0.368312
0.0916134
0.357792
0.102804
0.3483
0.120186
0.336549
0.152469
0.312551
0.205631
0.264978
0.308412
0.195731
0.309988
-0.132173
-0.161888
-0.105698
-0.171079
-0.0728106
-0.207352
-0.0399409
-0.213176
-0.00624926
-0.221242
0.0283928
-0.228017
0.0616551
-0.221816
0.0914783
-0.203126
0.117913
-0.182805
0.14137
-0.162594
0.161639
-0.140837
0.179258
-0.12177
0.1949
-0.106111
0.208872
-0.0924366
0.221507
-0.0816515
0.233087
-0.0728525
0.243806
-0.0659605
0.253809
-0.0605868
0.263243
-0.0566867
0.272207
-0.0536544
0.28078
-0.0514932
0.288975
-0.0494851
0.296769
-0.0469814
0.303906
-0.0418844
0.310158
-0.0349141
0.315446
-0.0286294
0.3198
-0.0225901
0.323275
-0.0169006
0.325866
-0.0114735
0.32764
-0.00634627
0.328604
-0.00140932
0.328828
0.0032781
0.328321
0.00791685
0.327047
0.0126295
0.324967
0.0178934
0.321761
0.0253768
0.316735
0.0365177
0.308311
0.0695704
0.291316
0.123492
-0.157151
0.184234
-0.186477
0.21162
-0.191063
0.242658
-0.206876
0.269959
-0.18704
0.296739
-0.18237
0.322855
-0.174152
0.346515
-0.157293
0.368549
-0.143791
0.388614
-0.128542
0.406756
-0.113087
0.423222
-0.0990563
0.437866
-0.0847737
0.450754
-0.0712688
0.462001
-0.0581009
0.471548
-0.0447007
0.479361
-0.0315239
0.485475
-0.0176859
0.489844
-0.00385962
0.492413
0.0110326
0.493224
0.0258828
0.492413
0.0415656
0.490017
0.0558671
0.486183
0.0681849
0.480907
0.0750483
0.474014
0.0743905
0.465639
0.0714398
0.456235
0.0709328
0.446183
0.0727721
0.435609
0.076829
0.424506
0.0821973
0.412738
0.0885074
0.400259
0.0958995
0.387015
0.104867
0.373279
0.116558
0.359912
0.133567
0.348546
0.163836
0.333967
0.22026
0.298345
0.344038
0.23425
0.374086
-0.130405
-0.188635
-0.102756
-0.198727
-0.0681532
-0.241956
-0.0337467
-0.247583
0.00140327
-0.256391
0.0374779
-0.264092
0.0720315
-0.256369
0.102792
-0.233886
0.129863
-0.209876
0.153739
-0.186469
0.174207
-0.161305
0.191885
-0.139448
0.207541
-0.121767
0.221525
-0.10642
0.234197
-0.0943239
0.24592
-0.0845747
0.256806
-0.076846
0.267051
-0.0708313
0.276758
-0.066394
0.286034
-0.0629297
0.294913
-0.0603723
0.303447
-0.0580202
0.31157
-0.0551045
0.319074
-0.0493902
0.325694
-0.0415352
0.331345
-0.0342835
0.33605
-0.027297
0.33984
-0.0206941
0.342708
-0.014343
0.344697
-0.00833926
0.345865
-0.00258043
0.34622
0.002918
0.345796
0.00833515
0.344562
0.0138569
0.342416
0.0200289
0.339093
0.0286903
0.333861
0.0417348
0.325272
0.0781358
0.308733
0.140028
-0.157299
0.185756
-0.214934
0.214578
-0.219885
0.247305
-0.239602
0.275974
-0.215709
0.304179
-0.210574
0.331612
-0.201585
0.356441
-0.182122
0.379328
-0.166678
0.400428
-0.149642
0.419341
-0.132
0.436455
-0.11617
0.451837
-0.100156
0.465501
-0.0849334
0.477472
-0.0700716
0.487751
-0.0549796
0.496364
-0.0401374
0.503201
-0.0245221
0.508231
-0.00889026
0.511462
0.00780232
0.512897
0.0244473
0.512664
0.0417993
0.51082
0.0577107
0.507443
0.0715619
0.502545
0.079947
0.496025
0.0809098
0.487954
0.0795108
0.478705
0.0801813
0.468715
0.0827609
0.458163
0.0873779
0.447008
0.0933469
0.435196
0.100323
0.4226
0.108493
0.409015
0.118453
0.394215
0.131371
0.378019
0.14975
0.362263
0.179554
0.34933
0.233219
0.324956
0.368418
0.271386
0.427694
-0.129082
-0.216852
-0.100081
-0.227729
-0.0636872
-0.27835
-0.0276749
-0.283595
0.00913596
-0.293202
0.046831
-0.301786
0.0828996
-0.292438
0.114779
-0.265765
0.142645
-0.237741
0.167077
-0.2109
0.187855
-0.182084
0.205672
-0.157265
0.221374
-0.137468
0.235365
-0.12041
0.248064
-0.107023
0.259824
-0.0963351
0.270852
-0.0878737
0.281267
-0.0812456
0.291195
-0.0763214
0.300735
-0.0724695
0.309931
-0.0695687
0.318748
-0.066837
0.32718
-0.0635365
0.335029
-0.0572398
0.342028
-0.0485352
0.348019
-0.0402749
0.353063
-0.0323423
0.357135
-0.0247663
0.360282
-0.0174909
0.362502
-0.010561
0.363833
-0.00391151
0.364323
0.00242799
0.363962
0.00869381
0.362757
0.0150629
0.360602
0.0221811
0.357199
0.0320951
0.351787
0.0471447
0.343155
0.0867655
0.327166
0.156019
-0.157804
0.187857
-0.244986
0.218217
-0.250244
0.252815
-0.274199
0.282931
-0.245823
0.312419
-0.240062
0.341288
-0.230453
0.367253
-0.208087
0.391231
-0.190657
0.413266
-0.171678
0.433
-0.151735
0.450904
-0.134074
0.467085
-0.116337
0.481391
-0.0992399
0.494014
-0.0826943
0.505078
-0.0660434
0.514337
-0.0493965
0.521887
-0.032072
0.527618
-0.0146204
0.531591
0.00382978
0.533754
0.022285
0.534057
0.0414974
0.532743
0.0590257
0.529793
0.074513
0.525263
0.0844787
0.519052
0.0871221
0.511186
0.0873783
0.50208
0.0892894
0.492113
0.0927301
0.481421
0.0980722
0.470105
0.104665
0.458096
0.112339
0.445305
0.121289
0.431581
0.132185
0.416684
0.146284
0.399958
0.166488
0.381047
0.198466
0.364852
0.249463
0.346086
0.387189
0.303818
0.46997
-0.128196
-0.24646
-0.0977278
-0.258198
-0.0593712
-0.316707
-0.0214981
-0.321468
0.0170367
-0.331737
0.0565906
-0.34134
0.0942517
-0.330098
0.127416
-0.298929
0.156243
-0.266568
0.181381
-0.236038
0.202571
-0.203273
0.22059
-0.175284
0.236389
-0.153266
0.250393
-0.134414
0.263094
-0.119724
0.274892
-0.108133
0.285973
-0.0989539
0.296505
-0.0917781
0.30663
-0.0864456
0.316389
-0.0822289
0.325802
-0.0789816
0.334923
-0.0759581
0.343671
-0.0722853
0.351854
-0.0654235
0.359201
-0.055884
0.365575
-0.0466505
0.370945
-0.0377147
0.375354
-0.0291779
0.378776
-0.0209154
0.38124
-0.0130281
0.382789
-0.00546444
0.383412
0.0018004
0.383163
0.00893628
0.382004
0.016215
0.37982
0.0243559
0.376313
0.035592
0.370767
0.052677
0.362095
0.0954176
0.346625
0.171483
-0.158819
0.190449
-0.276616
0.22239
-0.282184
0.258908
-0.310716
0.290672
-0.277587
0.321749
-0.271139
0.352067
-0.260771
0.379165
-0.235185
0.404327
-0.215819
0.427355
-0.194707
0.447981
-0.172361
0.466627
-0.152721
0.483398
-0.133108
0.498436
-0.114278
0.511827
-0.0960853
0.523426
-0.0776426
0.533391
-0.0593612
0.541596
-0.0402771
0.548044
-0.0210675
0.552608
-0.000734216
0.555362
0.019531
0.556283
0.0405768
0.555429
0.059879
0.552924
0.0770189
0.548791
0.0886115
0.542947
0.0929661
0.535425
0.0948995
0.526488
0.098226
0.516509
0.102708
0.505751
0.108827
0.494185
0.116224
0.481867
0.124661
0.46874
0.134412
0.454676
0.14625
0.439511
0.161461
0.422854
0.183131
0.403166
0.218112
0.383313
0.269347
0.365019
0.405484
0.330237
0.504789
-0.127552
-0.277728
-0.0955624
-0.290188
-0.0551259
-0.357143
-0.0153064
-0.361288
0.0252025
-0.372246
0.0666672
-0.382804
0.106128
-0.369559
0.14073
-0.333531
0.170666
-0.296503
0.196595
-0.261967
0.218319
-0.224996
0.236626
-0.193591
0.25258
-0.16922
0.266632
-0.148465
0.279338
-0.13243
0.291129
-0.119924
0.302245
-0.11007
0.312864
-0.102397
0.323091
-0.0966726
0.333023
-0.0921611
0.342691
-0.0886491
0.352066
-0.0853331
0.361085
-0.0813045
0.369607
-0.0739458
0.377307
-0.0635851
0.384032
-0.0533763
0.389766
-0.043449
0.394489
-0.0339012
0.398218
-0.0246444
0.400932
-0.0157434
0.402667
-0.00719949
0.40347
0.000997554
0.403316
0.00909003
0.40221
0.0173214
0.400006
0.0265583
0.396439
0.0391619
0.390749
0.0583665
0.382065
0.104103
0.367187
0.186361
-0.160098
0.193513
-0.31003
0.227203
-0.315873
0.26575
-0.349262
0.299117
-0.310954
0.33179
-0.303811
0.363669
-0.29265
0.392231
-0.263747
0.418506
-0.242094
0.442576
-0.218777
0.464068
-0.193853
0.483561
-0.172214
0.501138
-0.150685
0.516748
-0.129888
0.530711
-0.110048
0.543015
-0.0899468
0.553605
-0.0699505
0.562408
-0.0490796
0.569424
-0.0280836
0.574606
-0.00591551
0.577971
0.0161662
0.579474
0.0390752
0.579167
0.0601873
0.577111
0.0790759
0.573361
0.0923624
0.567861
0.0984683
0.560643
0.102119
0.551906
0.106965
0.542022
0.112595
0.531168
0.119682
0.519433
0.127962
0.506811
0.137288
0.493272
0.147954
0.478766
0.160762
0.463072
0.177169
0.446128
0.200086
0.426589
0.237651
0.404625
0.291356
0.384478
0.425635
0.351811
0.537463
-0.127184
-0.310642
-0.0934746
-0.323897
-0.0508874
-0.399731
-0.00896982
-0.403205
0.033607
-0.414822
0.0771538
-0.426351
0.118586
-0.410991
0.15473
-0.369674
0.185889
-0.327662
0.212767
-0.288845
0.235119
-0.247347
0.253807
-0.212279
0.269951
-0.185363
0.284086
-0.1626
0.296806
-0.14515
0.308601
-0.131718
0.319708
-0.121177
0.330364
-0.113052
0.340695
-0.107003
0.350755
-0.102221
0.360593
-0.0984879
0.370185
-0.0949252
0.379507
-0.0906261
0.388342
-0.0827822
0.396391
-0.0716352
0.403474
-0.0604607
0.409547
-0.0495241
0.414615
-0.0389716
0.418621
-0.0286528
0.421612
-0.0187377
0.423576
-0.0091671
0.424536
3.2288e-05
0.424519
0.00910142
0.423455
0.0183782
0.421259
0.0287444
0.417619
0.0427931
0.411809
0.0641625
0.403174
0.11272
0.388899
0.200628
-0.161795
0.196937
-0.345172
0.232479
-0.351415
0.273173
-0.389956
0.308374
-0.346154
0.342782
-0.338219
0.376287
-0.326156
0.406247
-0.293707
0.433826
-0.269673
0.458937
-0.243889
0.481381
-0.216298
0.501676
-0.192509
0.519953
-0.168962
0.536325
-0.14626
0.55094
-0.124662
0.563809
-0.102816
0.57494
-0.0810811
0.58435
-0.0584896
0.591984
-0.035718
0.597758
-0.0116892
0.601616
0.0123087
0.60365
0.0370411
0.603812
0.0600263
0.602194
0.0806937
0.598881
0.0956758
0.593819
0.10353
0.586918
0.10902
0.578428
0.115454
0.568625
0.122397
0.557733
0.130571
0.54585
0.139838
0.532978
0.150162
0.519072
0.161858
0.504078
0.175757
0.4878
0.193459
0.470206
0.217664
0.450619
0.257192
0.427859
0.314148
0.405776
0.447716
0.372411
0.570856
-0.126984
-0.345452
-0.0915902
-0.359292
-0.0466386
-0.444683
-0.0025128
-0.447331
0.0423188
-0.459654
0.0881498
-0.472181
0.13159
-0.45443
0.169465
-0.407549
0.201964
-0.360161
0.229892
-0.316772
0.252972
-0.270427
0.27212
-0.231426
0.288543
-0.201785
0.302815
-0.176872
0.315565
-0.157899
0.327353
-0.143506
0.338454
-0.132278
0.34912
-0.123718
0.359488
-0.117371
0.369651
-0.112384
0.379629
-0.108466
0.389433
-0.104729
0.398995
-0.100188
0.408145
-0.0919328
0.416523
-0.0800127
0.423953
-0.0678922
0.430375
-0.0559455
0.43575
-0.0443478
0.440079
-0.0329815
0.443343
-0.0220025
0.445546
-0.0113696
0.446703
-0.00112467
0.446807
0.0089978
0.445825
0.0193615
0.443625
0.0309439
0.439952
0.0464702
0.434053
0.0700615
0.42543
0.121345
0.411805
0.214255
-0.1637
0.200783
-0.382255
0.238281
-0.388912
0.281264
-0.432938
0.318343
-0.383233
0.354525
-0.3744
0.389774
-0.361404
0.421259
-0.325192
0.450137
-0.298552
0.476451
-0.270203
0.499866
-0.239714
0.521089
-0.213732
0.540116
-0.187989
0.55716
-0.163304
0.572404
-0.139906
0.585774
-0.116187
0.597527
-0.0928335
0.607499
-0.0684617
0.615664
-0.043882
0.622013
-0.018038
0.626452
0.00787061
0.628974
0.0345198
0.629634
0.0593673
0.628469
0.0818594
0.625554
0.0985925
0.620855
0.108231
0.614287
0.115589
0.606067
0.123677
0.59641
0.132057
0.585513
0.14147
0.5735
0.151853
0.56038
0.163287
0.54614
0.176099
0.530689
0.191212
0.513895
0.210265
0.495568
0.236
0.475515
0.277245
0.452355
0.337347
0.429046
0.471029
0.395083
0.604822
-0.127089
-0.382063
-0.0896754
-0.396706
-0.0423222
-0.492036
0.00418041
-0.493834
0.0513524
-0.506825
0.0995447
-0.520374
0.145262
-0.500148
0.184962
-0.447248
0.218959
-0.394158
0.248038
-0.34585
0.271941
-0.294329
0.291611
-0.251097
0.308374
-0.218548
0.322811
-0.191308
0.335623
-0.170712
0.347431
-0.155314
0.358524
-0.14337
0.369158
-0.134352
0.379545
-0.127757
0.389777
-0.122617
0.399871
-0.118559
0.409835
-0.114693
0.419638
-0.109991
0.429067
-0.101363
0.43776
-0.0887066
0.445526
-0.0756594
0.452288
-0.0627095
0.45801
-0.0500718
0.462652
-0.0376253
0.466198
-0.0255512
0.468638
-0.0138145
0.469982
-0.00247288
0.470236
0.00873751
0.469337
0.0202536
0.46716
0.0331118
0.463448
0.0501727
0.457491
0.076006
0.448972
0.129848
0.43597
0.227247
-0.165876
0.205054
-0.421432
0.244576
-0.428434
0.28996
-0.478322
0.328991
-0.422264
0.367093
-0.412503
0.40427
-0.39858
0.437275
-0.358198
0.467576
-0.328852
0.495217
-0.297845
0.51971
-0.264206
0.541798
-0.235821
0.561641
-0.207832
0.579292
-0.180954
0.59517
-0.155784
0.609239
-0.130256
0.621512
-0.105106
0.632029
-0.078979
0.640703
-0.0525555
0.647477
-0.0248116
0.652404
0.00294327
0.655445
0.0314795
0.65652
0.058292
0.655794
0.0825861
0.653296
0.10109
0.649003
0.112525
0.642834
0.121758
0.634851
0.131659
0.625352
0.141555
0.614516
0.152302
0.602405
0.16396
0.589082
0.176611
0.574508
0.19067
0.55867
0.207052
0.541373
0.227573
0.52236
0.254997
0.501615
0.29794
0.47807
0.36093
0.454007
0.495086
0.42041
0.63844
-0.127263
-0.420676
-0.0879464
-0.436022
-0.0379368
-0.542046
0.0110638
-0.542834
0.0607375
-0.556499
0.111514
-0.57115
0.159557
-0.54819
0.201256
-0.488947
0.23682
-0.429722
0.267192
-0.376223
0.291997
-0.319133
0.31231
-0.271409
0.32947
-0.235708
0.344139
-0.205977
0.357056
-0.183628
0.368878
-0.167135
0.379946
-0.154438
0.390576
-0.144982
0.400955
-0.138136
0.411208
-0.132871
0.421385
-0.128736
0.431506
-0.124814
0.441515
-0.119999
0.4512
-0.111048
0.460213
-0.0977199
0.468299
-0.0837456
0.475393
-0.0698045
0.481432
-0.0561105
0.486389
-0.0425825
0.49021
-0.0293726
0.492911
-0.0165155
0.494479
-0.00404028
0.494871
0.00834656
0.494083
0.0210431
0.491948
0.0352478
0.488215
0.0539107
0.482227
0.0819944
0.473782
0.138296
0.461452
0.239579
-0.168371
0.209706
-0.462766
0.251357
-0.470084
0.29925
-0.526215
0.340343
-0.463356
0.380543
-0.452703
0.419663
-0.4377
0.454358
-0.392892
0.486198
-0.360693
0.515119
-0.326767
0.540691
-0.289778
0.56375
-0.25888
0.584441
-0.228523
0.602921
-0.199433
0.6194
-0.172263
0.634017
-0.144873
0.646826
-0.117915
0.657841
-0.089994
0.667011
-0.0617252
0.674356
-0.0321564
0.679726
-0.00242571
0.683173
0.0280328
0.684727
0.0567395
0.684388
0.0829262
0.682286
0.103193
0.678366
0.116447
0.672553
0.127573
0.664893
0.139322
0.655578
0.150872
0.644787
0.163096
0.63261
0.176139
0.619114
0.190111
0.604266
0.205521
0.588003
0.223317
0.570223
0.245361
0.550638
0.274589
0.529193
0.319384
0.505087
0.385072
0.480489
0.519684
0.447776
0.671154
-0.1276
-0.461447
-0.0861398
-0.477482
-0.0334141
-0.594772
0.0182247
-0.594473
0.0705593
-0.608833
0.124043
-0.624634
0.174609
-0.598755
0.218411
-0.532749
0.255701
-0.467011
0.287429
-0.40795
0.31326
-0.344963
0.334255
-0.292405
0.351883
-0.253336
0.366827
-0.220921
0.379888
-0.196689
0.391757
-0.179005
0.402819
-0.1655
0.413416
-0.155578
0.423777
-0.148497
0.434046
-0.14314
0.44427
-0.13896
0.454493
-0.135037
0.464687
-0.130194
0.474646
-0.121006
0.48393
-0.107005
0.492318
-0.0921342
0.499732
-0.07722
0.506094
-0.0624741
0.511365
-0.0478561
0.515491
-0.0335016
0.51845
-0.0194787
0.520215
-0.00580972
0.520798
0.00775746
0.52011
0.0217238
0.518033
0.0373169
0.514303
0.0576313
0.5083
0.0879856
0.499995
0.146587
0.488361
0.251203
-0.171059
0.21462
-0.506327
0.258591
-0.514054
0.309153
-0.576776
0.352471
-0.506674
0.394819
-0.49505
0.435967
-0.478849
0.472498
-0.429423
0.50593
-0.394125
0.536221
-0.357059
0.563003
-0.31656
0.587165
-0.283043
0.608692
-0.25005
0.627911
-0.218653
0.645083
-0.189435
0.660263
-0.160053
0.673626
-0.131277
0.685131
-0.101499
0.694804
-0.0713979
0.702549
-0.0399012
0.708399
-0.00827564
0.71226
0.0241715
0.714182
0.0548182
0.714266
0.0828426
0.712542
0.104917
0.709032
0.119957
0.703565
0.13304
0.696202
0.146685
0.687096
0.159977
0.67638
0.173811
0.664188
0.188328
0.650536
0.203763
0.635427
0.220628
0.618798
0.239947
0.60055
0.26362
0.58044
0.29468
0.558295
0.341479
0.533594
0.409812
0.508491
0.54478
0.476668
0.702991
-0.128063
-0.504443
-0.0843851
-0.52116
-0.0287839
-0.650373
0.025693
-0.64895
0.0808209
-0.663961
0.137137
-0.680949
0.190423
-0.652041
0.236446
-0.578772
0.275591
-0.506157
0.308794
-0.441154
0.335705
-0.371874
0.357475
-0.314174
0.375645
-0.271505
0.390925
-0.236201
0.404157
-0.209921
0.416121
-0.190969
0.427192
-0.17657
0.437769
-0.166155
0.448098
-0.158826
0.458348
-0.15339
0.468616
-0.149229
0.478923
-0.145344
0.489276
-0.140547
0.499439
-0.131169
0.508987
-0.116553
0.517681
-0.100828
0.525399
-0.0849385
0.532088
-0.0691632
0.537657
-0.0534252
0.542078
-0.037923
0.5453
-0.0227012
0.547312
-0.00782106
0.54806
0.00701029
0.54749
0.0222968
0.545492
0.0393162
0.541777
0.0613522
0.535821
0.0939434
0.527649
0.154761
0.516681
0.262172
-0.174037
0.219996
-0.552286
0.266399
-0.560456
0.319656
-0.630033
0.365415
-0.552432
0.409937
-0.539572
0.453332
-0.522244
0.491704
-0.467795
0.526836
-0.429257
0.558647
-0.388871
0.586715
-0.344628
0.611854
-0.308181
0.634386
-0.272582
0.654348
-0.238615
0.672206
-0.207293
0.688076
-0.175923
0.70194
-0.145141
0.71397
-0.113528
0.724089
-0.0815166
0.732314
-0.0481263
0.738545
-0.0145058
0.742791
0.0199266
0.745134
0.0524756
0.745535
0.0824434
0.744179
0.106275
0.741012
0.123125
0.735897
0.138158
0.728856
0.153728
0.719979
0.168857
0.709416
0.184377
0.697208
0.200538
0.683435
0.21754
0.668083
0.235981
0.651107
0.256925
0.632425
0.282307
0.611761
0.315348
0.589037
0.3642
0.563712
0.435167
0.538031
0.570459
0.506967
0.734054
-0.128697
-0.549783
-0.0826369
-0.56722
-0.023952
-0.709058
0.0334478
-0.70635
0.0915764
-0.722089
0.150924
-0.740297
0.206984
-0.708099
0.255445
-0.627233
0.296531
-0.547242
0.33135
-0.475973
0.359451
-0.399975
0.382073
-0.336796
0.400839
-0.290271
0.416498
-0.25186
0.429964
-0.223387
0.442019
-0.203024
0.453138
-0.187689
0.463686
-0.176703
0.473983
-0.169123
0.484209
-0.163616
0.494484
-0.159504
0.504858
-0.155718
0.515353
-0.151042
0.525723
-0.14154
0.53552
-0.126351
0.544474
-0.109783
0.552478
-0.0929443
0.559456
-0.0761424
0.565343
-0.0593138
0.570045
-0.0426281
0.57355
-0.0262097
0.575778
-0.010055
0.576733
0.00605012
0.576322
0.0227009
0.574383
0.0412472
0.570749
0.0649781
0.564829
0.0998531
0.556872
0.162703
0.546586
0.272448
-0.17723
0.225715
-0.600771
0.274594
-0.609334
0.330894
-0.686332
0.378976
-0.600514
0.425994
-0.586589
0.47165
-0.567901
0.512105
-0.50825
0.548962
-0.466115
0.582339
-0.422249
0.611725
-0.374015
0.638112
-0.334569
0.66156
-0.29603
0.682429
-0.259484
0.701013
-0.225877
0.717481
-0.19239
0.731922
-0.159582
0.744424
-0.12603
0.754973
-0.0920653
0.763571
-0.0567234
0.770207
-0.0211422
0.774861
0.0152728
0.777487
0.0498502
0.778237
0.081694
0.77724
0.107272
0.77442
0.125946
0.769685
0.142893
0.762952
0.160461
0.7543
0.17751
0.74385
0.194826
0.731692
0.212693
0.717833
0.231399
0.702274
0.25154
0.684985
0.274215
0.665875
0.301423
0.644736
0.33647
0.62144
0.387441
0.595534
0.461115
0.569283
0.5967
0.538808
0.764541
-0.129418
-0.597594
-0.0808537
-0.615785
-0.0189484
-0.770963
0.041537
-0.766835
0.102818
-0.78337
0.165372
-0.80285
0.224454
-0.767181
0.275422
-0.6782
0.318604
-0.590424
0.355106
-0.512475
0.384499
-0.429367
0.40806
-0.360357
0.427486
-0.309697
0.443598
-0.267972
0.457331
-0.23712
0.469538
-0.215232
0.480698
-0.198849
0.491247
-0.187251
0.501509
-0.179384
0.511729
-0.173837
0.521983
-0.169758
0.532413
-0.166149
0.543013
-0.161642
0.553571
-0.152097
0.563594
-0.136374
0.572784
-0.118972
0.58108
-0.101241
0.588345
-0.0834076
0.594502
-0.0654708
0.599521
-0.0476475
0.603284
-0.0299733
0.605765
-0.0125355
0.606896
0.00491918
0.606637
0.0229629
0.604834
0.0430531
0.601254
0.0685645
0.59545
0.105659
0.587685
0.170471
0.578095
0.28204
-0.18069
0.231797
-0.651879
0.283345
-0.660881
0.342695
-0.745682
0.393479
-0.651298
0.44294
-0.636049
0.491104
-0.616065
0.533574
-0.55072
0.572362
-0.504904
0.607421
-0.457308
0.638268
-0.404863
0.665818
-0.362118
0.690388
-0.3206
0.712118
-0.281214
0.731468
-0.245227
0.74855
-0.209472
0.763591
-0.174622
0.776561
-0.139
0.787544
-0.103048
0.796582
-0.0657616
0.803558
-0.0281169
0.808519
0.0103121
0.811483
0.0468874
0.81254
0.0806377
0.811853
0.10796
0.809377
0.128424
0.80495
0.147321