/*--------------------------------*- C++ -*----------------------------------*\
| =========                 |                                                 |
| \\      /  F ield         | OpenFOAM: The Open Source CFD Toolbox           |
|  \\    /   O peration     | Version:  2312                                  |
|   \\  /    A nd           | Website:  www.openfoam.com                      |
|    \\/     M anipulation  |                                                 |
\*---------------------------------------------------------------------------*/
FoamFile
{
    version     2.0;
    format      ascii;
    arch        "LSB;label=32;scalar=64";
    class       volScalarField;
    location    "100";
    object      turbulenceProperties:I;
}
// * * * * * * * * * * * * * * * * * * * * * * * * * * * * * * * * * * * * * //

dimensions      [0 0 0 0 0 0 0];

internalField   nonuniform List<scalar> 
10720
(
0.00435762
0.00427072
0.00424093
0.00432534
0.00444978
0.00464301
0.00492036
0.00526875
0.00570373
0.00623957
0.00688943
0.00768734
0.00868428
0.00994317
0.0115716
0.0137366
0.0166685
0.0208499
0.0267988
0.0364137
0.0506887
0.0793178
0.124199
0.232521
0.344737
0.37516
0.356654
0.33175
0.31262
0.299539
0.290645
0.285946
0.284178
0.284258
0.286051
0.289902
0.299591
0.312981
0.470137
0.00448493
0.00475511
0.00512524
0.00592708
0.00746839
0.0109137
0.0161999
0.0118968
0.00809997
0.00684532
0.00658062
0.00677714
0.00725531
0.00795515
0.00885386
0.00997684
0.0113887
0.0131996
0.0155768
0.0187308
0.0230762
0.0289736
0.037695
0.0497737
0.0697582
0.0978703
0.14654
0.198662
0.226836
0.236662
0.239629
0.241056
0.242145
0.243049
0.243895
0.244873
0.246178
0.249363
0.254902
0.00209349
0.00189512
0.00171801
0.00155643
0.00141111
0.00128243
0.00116652
0.00106149
0.000968861
0.000886047
0.000812709
0.000750926
0.000697585
0.000668475
0.000685118
0.000767682
0.000970258
0.00134841
0.00196326
0.00308875
0.00491732
0.00873855
0.0146753
0.0271822
0.0463156
0.0659338
0.0857227
0.104828
0.121006
0.13108
0.133595
0.130941
0.126849
0.123945
0.123713
0.12669
0.13815
0.153678
0.319966
0.00231734
0.00260517
0.00301645
0.00363479
0.00457742
0.00587963
0.00678682
0.00585456
0.00419826
0.00303249
0.00230609
0.0018315
0.00149886
0.00125205
0.00106154
0.000910361
0.000786158
0.000681879
0.000589479
0.000502379
0.000410656
0.000307128
0.000189525
9.36149e-05
0.000478277
0.00164985
0.0041166
0.010132
0.0168909
0.0226271
0.0271789
0.030655
0.0333679
0.0356892
0.0378842
0.0401853
0.0428514
0.0476601
0.0604911
0.00179289
0.00163086
0.00147613
0.00133351
0.0012113
0.00110308
0.0010091
0.000930902
0.000866622
0.000815614
0.000776021
0.000746153
0.00072405
0.000710037
0.000703677
0.000703722
0.000684904
0.000640758
0.000380997
0.000277407
0.000942378
0.00239537
0.000377384
0.000321975
0.000894469
0.00426808
0.00962571
0.0180265
0.0304747
0.0469603
0.0657943
0.0835209
0.0969093
0.104999
0.109849
0.114079
0.123522
0.134099
0.238352
0.00198011
0.00220663
0.00251712
0.00292938
0.00343613
0.00394529
0.00420308
0.00393335
0.00326907
0.0025897
0.0020468
0.00163895
0.00133157
0.00109558
0.000914505
0.000774912
0.000668282
0.000587615
0.000528083
0.000484439
0.000452976
0.000431335
0.000417825
0.000410462
0.00040659
0.000402187
0.000398582
0.00031972
0.00111876
0.00239378
0.00376887
0.0054368
0.00821449
0.0117459
0.0154609
0.0190438
0.0224407
0.0248527
0.0343512
0.00163859
0.00151448
0.00139561
0.00128787
0.00119065
0.00110121
0.0010206
0.00094739
0.00088099
0.000820538
0.000765298
0.000714836
0.000668661
0.000625414
0.000584577
0.000544816
0.000503161
0.000461496
0.000418872
0.000365458
0.00031604
9.56961e-05
0.000113027
9.36065e-05
0.00109104
0.00239629
0.00381314
0.00538269
0.00160199
0.00284443
0.00894419
0.0222437
0.0403805
0.0605307
0.079108
0.0942226
0.109678
0.124534
0.196812
0.00177202
0.00192807
0.00212478
0.00237052
0.00263735
0.00287203
0.00298369
0.00287011
0.00255308
0.00216827
0.00181529
0.00152597
0.00129635
0.00111473
0.000971156
0.000856393
0.00076414
0.000689301
0.000628508
0.000578086
0.000535939
0.000499664
0.00046703
0.000434487
0.000402681
0.000376671
0.000356267
0.000343612
0.000312954
0.000333308
0.000139827
0.000157061
0.000614999
0.000757844
0.00187549
0.00395661
0.00688882
0.0107439
0.0212802
0.00142997
0.0013313
0.00123434
0.00114292
0.00105911
0.000980399
0.000907937
0.000841738
0.00078121
0.000726644
0.000677828
0.000634679
0.000597148
0.000565216
0.00053869
0.000517903
0.000501853
0.000487355
0.000471323
0.00045175
0.000417888
0.000367882
0.00018586
7.77956e-05
5.14671e-05
1.04788e-06
0
0
0.000879951
0.00308725
0.0057401
0.00346267
0.00583754
0.0131626
0.033538
0.0581466
0.0840213
0.108763
0.166047
0.00153401
0.00165012
0.001789
0.00194798
0.00210405
0.00222968
0.00228689
0.00223109
0.00206296
0.00183394
0.00159601
0.00137847
0.00118987
0.00102958
0.00089479
0.000781754
0.000687218
0.000608488
0.000543527
0.000490118
0.000446532
0.000410802
0.000380898
0.000353447
0.000326508
0.000301801
0.000282586
0.00026999
0.000264801
0.000256291
0.000270086
2.82905e-05
0.000426801
0.000853775
0.000724232
0.000605653
0.00102743
0.00191907
0.00911738
0.00127503
0.00120052
0.00112536
0.00105389
0.000987731
0.000924854
0.00086648
0.000812516
0.000762472
0.000716313
0.000673611
0.000634057
0.000597429
0.00056343
0.00053183
0.000502545
0.000474454
0.000445572
0.000416686
0.000389636
0.000364568
0.000345264
0.000312983
0.000258081
0.000183915
3.51929e-06
4.80495e-05
3.61951e-05
7.35928e-06
0
0
0.00160145
0.00444351
0.00367328
0.0071802
0.0184195
0.0482802
0.0841343
0.137449
0.00135084
0.00143268
0.00152763
0.00163143
0.00172787
0.0018032
0.00183726
0.00180611
0.00170782
0.00156455
0.00140369
0.001246
0.0011017
0.000974203
0.000863976
0.000769922
0.000690285
0.000623196
0.000566906
0.000519582
0.000479513
0.000444855
0.000413702
0.000383492
0.000352971
0.000323932
0.000298152
0.000276028
0.000257098
0.000240937
0.000226435
0.000210963
0.000186494
0.000126721
2.97349e-05
0.000208225
0.000426775
0.000928327
0.00303191
0.00113252
0.0010747
0.00101494
0.000956855
0.000902381
0.000849589
0.000799688
0.00075288
0.000708745
0.000667429
0.000628779
0.000592651
0.000559084
0.000527999
0.000499444
0.000473438
0.0004502
0.000430304
0.000412749
0.000396006
0.000379326
0.000363442
0.000350807
0.000333986
0.000312631
0.000274567
0.000222156
0.000156547
2.89217e-05
4.22056e-05
8.65234e-06
0
0
0.00149808
0.000308986
0.00598323
0.0149234
0.0533797
0.107299
0.00118977
0.00124999
0.00131812
0.00138938
0.00145291
0.00150199
0.00152404
0.00150511
0.00144383
0.00135043
0.00123946
0.00112413
0.00101261
0.000909098
0.000815525
0.000732344
0.00065917
0.000595345
0.000540093
0.000492425
0.000451333
0.000415605
0.000383794
0.000353859
0.000324415
0.000296378
0.000271274
0.000249757
0.000231622
0.000216913
0.000206205
0.000199488
0.000194686
0.000181642
0.000148497
0.000110797
3.80454e-05
1.02547e-05
0.000568239
0.00101302
0.000968581
0.000921624
0.000875299
0.000831533
0.000788558
0.000747602
0.000708898
0.000672098
0.000637395
0.000604611
0.000573635
0.000544449
0.000516933
0.000491035
0.000466684
0.000443887
0.000421996
0.000400352
0.000379453
0.000360055
0.000342744
0.000328559
0.000318085
0.000308274
0.00029921
0.000283394
0.000261782
0.000225233
0.000182683
3.69446e-05
3.46717e-05
0
0
4.97196e-05
0.00288157
0.00284342
0.024766
0.0760375
0.001056
0.00110054
0.00115024
0.0012007
0.00124458
0.00127833
0.00129343
0.00128123
0.00124099
0.00117779
0.00109959
0.00101482
0.000929423
0.000847131
0.00077026
0.000700032
0.000636828
0.000580691
0.000531335
0.000488166
0.000450388
0.000416997
0.000386746
0.000358038
0.000329836
0.000302807
0.000278061
0.00025593
0.000235995
0.0002179
0.000201584
0.00018668
0.000173073
0.00016086
0.000152331
0.000143827
0.000121337
3.96031e-05
0.000160823
0.000909539
0.000874856
0.000837515
0.000800108
0.000764497
0.00072906
0.000694892
0.000662269
0.000630896
0.000600943
0.000572324
0.000544943
0.000518827
0.000493944
0.000470317
0.000447982
0.000426905
0.000407242
0.000389147
0.000372378
0.000356649
0.000341869
0.00032823
0.000316087
0.000304608
0.000293709
0.000283005
0.000273212
0.000263535
0.000253837
0.000223926
0.000155398
5.03233e-05
1.49213e-05
0
0
0.00202648
0.00934084
0.0476576
0.000942561
0.000976382
0.00101366
0.00105062
0.00108215
0.0011062
0.00111693
0.00110872
0.00108119
0.00103704
0.00098084
0.000917905
0.000852334
0.000787003
0.000723968
0.00066455
0.000609519
0.000559258
0.000513867
0.000473178
0.000436795
0.000404068
0.000374108
0.000345773
0.000318272
0.000291968
0.000267786
0.00024616
0.000226887
0.00020972
0.000194754
0.000182344
0.00017253
0.000165419
0.000161393
0.000162454
0.000168212
0.00016931
3.37886e-05
0.000820887
0.000793574
0.000763765
0.000733551
0.000704609
0.000675542
0.000647289
0.000620132
0.000593819
0.000568518
0.000544147
0.000520631
0.000498005
0.000476243
0.000455358
0.000435372
0.000416301
0.000398185
0.000380698
0.000363807
0.000347854
0.000333191
0.000320064
0.000308342
0.000297198
0.000285701
0.000274048
0.000263438
0.000255837
0.000250959
0.0002517
0.000241136
0.000208728
6.78019e-05
2.221e-05
0
2.09931e-05
0.000815764
0.0264165
0.000846625
0.000872758
0.00090125
0.00092894
0.000952273
0.000969914
0.000977729
0.000971981
0.000952482
0.000920751
0.000879561
0.000832341
0.000781822
0.000730075
0.000678797
0.000629195
0.000582096
0.000538114
0.000497545
0.000460485
0.000426784
0.00039603
0.000367574
0.000340613
0.000314534
0.000289587
0.000266485
0.000245575
0.000226659
0.000209438
0.000193836
0.000179848
0.000167446
0.000157122
0.000149098
0.000147579
0.000146252
0.000187381
0.000123583
0.000744373
0.000722577
0.000698538
0.000673934
0.000650248
0.000626264
0.000602757
0.000580048
0.000557866
0.00053638
0.00051551
0.000495183
0.000475431
0.000456231
0.000437614
0.000419632
0.000402301
0.000385709
0.000369871
0.000354836
0.000340642
0.000327387
0.000315164
0.000303901
0.000293067
0.000281904
0.000270299
0.000259091
0.000249756
0.000242678
0.000240224
0.00024111
0.000244014
0.000230722
9.06805e-05
1.22483e-05
0
0.0016375
0.0146255
0.000764779
0.000785297
0.000807451
0.000828591
0.000846265
0.000859487
0.000865265
0.000861106
0.000846882
0.000823545
0.000792796
0.000756929
0.000717782
0.000676791
0.000635196
0.000593981
0.000553896
0.000515553
0.000479391
0.000445631
0.000414294
0.000385193
0.000357925
0.000331956
0.00030689
0.000282918
0.000260585
0.000240241
0.000221797
0.000205067
0.000190039
0.000176906
0.000165781
0.000157065
0.00015082
0.00015009
0.000149771
0.000176018
0.000198518
0.000678095
0.000660525
0.000640984
0.000620812
0.000601357
0.000581509
0.000561955
0.000542971
0.000524325
0.000506168
0.000488421
0.000471012
0.000453963
0.000437259
0.000420916
0.000404982
0.000389492
0.000374529
0.000360098
0.000346119
0.000332721
0.000320175
0.000308594
0.000297902
0.000287653
0.00027724
0.000266492
0.000256005
0.000246776
0.000239304
0.000233836
0.000231656
0.000232242
0.00024763
0.000240143
4.23182e-05
1.19912e-06
0.00106932
0.00911975
0.000694452
0.000710678
0.000728098
0.000744474
0.000758125
0.000768204
0.000772553
0.000769474
0.000758847
0.000741298
0.000717975
0.000690422
0.000659882
0.000627305
0.000593619
0.000559544
0.000525672
0.000492573
0.00046067
0.000430293
0.000401593
0.000374524
0.000348839
0.000324212
0.000300454
0.000277708
0.000256406
0.00023685
0.000219004
0.000202708
0.000187925
0.000174734
0.00016319
0.000153703
0.000146555
0.000144442
0.0001448
0.000162661
0.000205909
0.000620229
0.000605955
0.000589964
0.000573326
0.000557257
0.000540753
0.000524432
0.000508529
0.000492825
0.000477458
0.000462358
0.00044745
0.000432746
0.000418215
0.000403881
0.000389783
0.000375961
0.000362473
0.000349414
0.00033676
0.000324581
0.000313079
0.000302317
0.000292229
0.000282491
0.000272665
0.000262629
0.000252871
0.000244197
0.000237119
0.000231492
0.000227759
0.000225462
0.000228898
0.00025384
0.000217889
6.51256e-06
0.000738
0.00597938
0.000633409
0.000646284
0.000660083
0.00067293
0.000683635
0.000691455
0.000694798
0.000692471
0.000684383
0.000670975
0.000653032
0.000631621
0.000607608
0.00058165
0.000554335
0.000526206
0.000497709
0.000469304
0.00044137
0.000414229
0.000388098
0.000363027
0.000338916
0.00031562
0.000293083
0.000271458
0.000251083
0.00023224
0.000214949
0.000199109
0.000184716
0.000171878
0.000160743
0.000151668
0.000144899
0.000142633
0.000143007
0.000156779
0.00019686
0.000569294
0.000557649
0.000544509
0.000530732
0.000517421
0.000503678
0.000490024
0.000476682
0.000463455
0.000450454
0.00043763
0.000424891
0.000412258
0.0003997
0.000387217
0.000374839
0.000362602
0.000350559
0.00033883
0.00032736
0.000316214
0.000305595
0.000295587
0.00028614
0.00027699
0.000267792
0.000258458
0.000249385
0.000241269
0.000234596
0.0002294
0.000225602
0.000223713
0.000221551
0.000231001
0.000274684
4.85044e-05
0.000410562
0.00359716
0.000579889
0.00059011
0.00060111
0.000611313
0.000619795
0.000625966
0.000628589
0.000626836
0.00062059
0.000610202
0.000596225
0.000579436
0.000560431
0.000539637
0.000517477
0.000494291
0.000470387
0.00044613
0.000421831
0.000397774
0.000374173
0.000351156
0.000328724
0.000306875
0.00028565
0.000265212
0.000245848
0.00022781
0.00021115
0.000195812
0.000181798
0.000169197
0.00015813
0.000148931
0.000141863
0.000139042
0.000138807
0.000150901
0.000186385
0.000524078
0.000514568
0.000503755
0.000492319
0.000481279
0.000469828
0.00045839
0.000447193
0.000436051
0.000425057
0.000414175
0.000403319
0.000392488
0.000381653
0.000370803
0.00035997
0.000349187
0.000338489
0.000327999
0.00031769
0.000307609
0.000297915
0.000288704
0.000279929
0.000271385
0.000262811
0.000254142
0.000245704
0.000238095
0.000231761
0.000226867
0.0002233
0.000221607
0.000221464
0.000217524
0.000261117
0.000177706
0.000132174
0.00183297
0.000532559
0.000540668
0.000549492
0.000557684
0.000564461
0.000569399
0.000571511
0.000570181
0.000565319
0.000557186
0.000546201
0.000532912
0.000517765
0.000501046
0.000483019
0.000463917
0.000443927
0.000423289
0.000402246
0.000381034
0.000359872
0.000338903
0.000318184
0.000297777
0.000277838
0.000258564
0.000240198
0.000222959
0.000206932
0.000192099
0.000178482
0.000166183
0.000155341
0.000146261
0.000139186
0.000136025
0.000135258
0.000145344
0.000176704
0.000483645
0.000475895
0.00046699
0.000457498
0.000448356
0.000438817
0.000429253
0.000419868
0.000410496
0.00040122
0.000392003
0.000382761
0.000373501
0.000364182
0.000354806
0.000345379
0.00033593
0.000326487
0.000317157
0.000307944
0.000298866
0.000290047
0.000281608
0.000273518
0.000265598
0.000257651
0.000249637
0.000241826
0.000234721
0.000228731
0.000224051
0.000220739
0.000218757
0.000220374
0.000215975
0.000235037
0.000255451
3.06014e-05
0.000721821
0.000490434
0.000496871
0.000504003
0.000510642
0.000516088
0.00052006
0.000521781
0.000520771
0.000516949
0.000510529
0.000501821
0.000491242
0.00047911
0.000465606
0.000450916
0.000435154
0.00041845
0.000400945
0.000382807
0.000364217
0.000345355
0.000326368
0.000307346
0.000288422
0.000269802
0.000251708
0.000234354
0.000217943
0.000202581
0.00018828
0.000175078
0.000163079
0.000152409
0.000143345
0.000136123
0.000132505
0.000131188
0.000139472
0.000167402
0.000447303
0.000440996
0.00043366
0.000425798
0.00041824
0.00041031
0.000402331
0.00039449
0.00038662
0.00037881
0.000371024
0.000363184
0.000355301
0.000347328
0.000339253
0.000331083
0.000322838
0.000314548
0.000306284
0.000298104
0.000289986
0.000282023
0.00027435
0.000266948
0.000259667
0.000252347
0.000244973
0.000237771
0.000231165
0.000225535
0.00022106
0.000217957
0.00021589
0.00021718
0.000217298
0.000217529
0.000274502
3.58447e-05
8.66454e-05
0.000452764
0.000457903
0.000463696
0.00046911
0.000473496
0.000476693
0.000478094
0.000477318
0.000474286
0.000469176
0.000462226
0.000453744
0.000443968
0.00043303
0.000421024
0.000408023
0.000394072
0.000379264
0.000363687
0.000347474
0.000330758
0.000313666
0.000296304
0.000278844
0.000261533
0.000244598
0.000228251
0.000212677
0.000197989
0.000184231
0.000171453
0.000159766
0.000149293
0.000140287
0.00013297
0.000128931
0.000127079
0.00013363
0.00015832
0.000414532
0.00040939
0.000403347
0.000396849
0.000390609
0.00038404
0.000377401
0.000370868
0.000364291
0.000357746
0.000351198
0.000344583
0.000337894
0.000331095
0.000324172
0.000317128
0.000309976
0.000302736
0.000295462
0.000288235
0.000281018
0.000273873
0.000266939
0.000260214
0.000253569
0.000246875
0.00024013
0.000233525
0.000227416
0.000222156
0.000217915
0.000214955
0.000213077
0.000213377
0.000216442
0.000211785
0.00025998
0.000112338
3.32798e-05
0.000418956
0.00042309
0.000427814
0.000432237
0.000435774
0.000438327
0.000439458
0.000438835
0.0004364
0.000432292
0.000426705
0.000419867
0.000411956
0.000403054
0.000393222
0.000382479
0.000370834
0.000358324
0.000344989
0.0003309
0.000316162
0.000300878
0.000285138
0.00026911
0.000253067
0.00023728
0.000221939
0.00020721
0.00019321
0.000180009
0.000167667
0.000156297
0.000146017
0.000137052
0.000129609
0.000125128
0.000122732
0.00012774
0.000149427
0.000384907
0.000380697
0.00037573
0.000370351
0.000365221
0.000359787
0.000354288
0.000348864
0.000343391
0.000337929
0.00033245
0.000326886
0.000321242
0.000315476
0.000309579
0.000303541
0.000297373
0.000291093
0.000284733
0.000278384
0.000272003
0.000265633
0.00025941
0.000253341
0.00024732
0.000241237
0.000235101
0.000229076
0.00022346
0.000218575
0.000214596
0.000211755
0.000210109
0.000209795
0.000213241
0.000211457
0.000234887
0.000205208
0.000115743
0.00038852
0.000391865
0.000395719
0.000399333
0.000402175
0.000404199
0.000405087
0.000404565
0.000402574
0.000399239
0.000394709
0.000389155
0.000382718
0.000375444
0.000367365
0.000358478
0.000348756
0.000338196
0.000326807
0.000314619
0.000301681
0.000288065
0.000273854
0.000259223
0.000244448
0.00022979
0.000215437
0.000201546
0.00018824
0.000175601
0.0001637
0.000152652
0.000142569
0.00013365
0.000126084
0.000121165
0.000118224
0.000121818
0.00014072
0.00035806
0.000354604
0.000350517
0.000346071
0.000341855
0.000337377
0.000332829
0.000328351
0.000323815
0.00031928
0.00031472
0.000310074
0.000305344
0.000300492
0.000295496
0.000290356
0.000285071
0.000279658
0.000274131
0.000268587
0.000262984
0.000257351
0.000251802
0.000246363
0.000240944
0.000235454
0.000229903
0.000224437
0.000219305
0.000214793
0.000211088
0.000208376
0.000206884
0.000206428
0.000209
0.000211033
0.00021783
0.000232261
0.000188061
0.000361029
0.000363733
0.000366873
0.000369824
0.000372091
0.000373681
0.000374356
0.000373887
0.000372227
0.000369484
0.000365776
0.000361234
0.00035596
0.000349993
0.000343332
0.00033596
0.000327837
0.000318933
0.000309218
0.000298695
0.000287386
0.000275323
0.000262559
0.000249264
0.00023571
0.000222146
0.000208762
0.000195705
0.000183096
0.000171025
0.000159572
0.000148849
0.000138964
0.000130088
0.000122388
0.000117025
0.000113534
0.000115871
0.000132249
0.000333658
0.000330824
0.000327459
0.000323785
0.00032033
0.000316648
0.000312899
0.000309216
0.000305476
0.000301732
0.000297962
0.000294107
0.000290167
0.000286107
0.000281908
0.000277563
0.000273068
0.000268436
0.000263676
0.000258876
0.000253994
0.000249055
0.000244145
0.000239307
0.000234469
0.000229546
0.000224554
0.00021962
0.000214958
0.000210816
0.000207387
0.000204827
0.000203411
0.000203034
0.000204595
0.000208777
0.000209319
0.000227243
0.00022173
0.000336098
0.000338271
0.000340817
0.000343219
0.000345015
0.000346248
0.000346742
0.000346304
0.000344894
0.000342607
0.000339534
0.000335781
0.000331433
0.000326507
0.000320995
0.000314862
0.000308062
0.00030055
0.000292277
0.000283216
0.000273352
0.000262705
0.000251301
0.000239276
0.00022688
0.000214375
0.00020194
0.000189708
0.000177793
0.000166292
0.000155289
0.000144891
0.000135205
0.000126373
0.000118534
0.000112727
0.000108675
0.000109877
0.000123986
0.000311399
0.000309081
0.000306325
0.000303289
0.000300472
0.000297454
0.000294378
0.000291364
0.000288298
0.000285227
0.000282128
0.000278951
0.000275694
0.000272323
0.000268824
0.000265181
0.000261392
0.000257467
0.000253404
0.000249275
0.000245061
0.000240768
0.000236461
0.000232193
0.000227909
0.000223529
0.00021907
0.000214643
0.000210432
0.000206653
0.000203497
0.000201108
0.000199735
0.000199464
0.000200309
0.000204966
0.000204916
0.00021549
0.000228391
0.000313393
0.000315117
0.000317168
0.000319112
0.000320521
0.000321468
0.000321812
0.000321389
0.000320168
0.000318231
0.000315664
0.000312538
0.000308921
0.000304828
0.000300238
0.000295119
0.000289414
0.000283065
0.000276017
0.000268223
0.00025965
0.000250278
0.000240117
0.000229279
0.000218
0.000206518
0.000195001
0.000183574
0.000172346
0.000161411
0.000150859
0.000140788
0.000131294
0.000122505
0.000114518
0.000108266
0.00010365
0.000103843
0.000115951
0.000291017
0.000289139
0.000286891
0.000284397
0.000282115
0.000279655
0.000277148
0.000274697
0.000272203
0.000269702
0.000267179
0.000264583
0.000261916
0.000259143
0.000256249
0.000253223
0.000250058
0.000246757
0.000243322
0.000239801
0.000236204
0.00023251
0.000228769
0.000225042
0.000221285
0.000217421
0.000213465
0.000209519
0.00020574
0.000202316
0.000199425
0.000197212
0.000195879
0.000195666
0.000196115
0.000200259
0.000201453
0.000205216
0.00022228
0.000292622
0.000293971
0.000295611
0.000297164
0.00029826
0.000298978
0.000299195
0.000298784
0.000297711
0.000296052
0.000293878
0.000291248
0.000288215
0.000284793
0.000280955
0.000276658
0.000271853
0.000266479
0.000260469
0.000253766
0.000246322
0.000238097
0.000229074
0.000219344
0.000209114
0.000198606
0.000187968
0.000177324
0.00016677
0.000156399
0.000146297
0.000136553
0.000127245
0.000118494
0.000110355
0.000103658
9.84653e-05
9.7762e-05
0.000108154
0.000272285
0.000270784
0.000268968
0.000266938
0.000265104
0.00026312
0.000261094
0.000259123
0.00025711
0.000255095
0.00025306
0.000250961
0.000248797
0.000246542
0.000244176
0.000241688
0.000239072
0.000236326
0.000233453
0.000230481
0.000227439
0.000224296
0.000221083
0.000217865
0.000214602
0.000211225
0.000207746
0.000204257
0.00020089
0.00019781
0.00019518
0.000193145
0.000191857
0.000191648
0.000191906
0.000195155
0.000197568
0.000197505
0.000211872
0.000273544
0.000274589
0.000275886
0.000277111
0.000277953
0.000278483
0.000278596
0.000278187
0.000277232
0.000275795
0.00027394
0.000271711
0.000269151
0.000266264
0.000263027
0.000259406
0.000255346
0.000250782
0.000245649
0.000239883
0.000233426
0.000226219
0.000218226
0.000209513
0.000200258
0.000190662
0.000180871
0.000170983
0.000161089
0.000151274
0.000141618
0.000132199
0.000123086
0.000114375
0.000106082
9.89341e-05
9.31484e-05
9.16177e-05
0.000100566
0.000255015
0.000253838
0.00025239
0.000250759
0.000249308
0.000247731
0.000246115
0.000244551
0.000242952
0.000241349
0.000239732
0.000238057
0.000236325
0.000234514
0.000232603
0.000230584
0.000228448
0.00022619
0.000223815
0.000221337
0.000218794
0.000216147
0.000213418
0.000210668
0.000207867
0.000204949
0.00020192
0.000198862
0.000195887
0.000193138
0.000190764
0.000188906
0.000187675
0.000187435
0.0001876
0.000189941
0.000192941
0.000191475
0.000201092
0.000255978
0.000256771
0.000257787
0.000258735
0.000259365
0.000259735
0.000259763
0.000259358
0.000258496
0.000257239
0.00025564
0.000253731
0.000251548
0.000249102
0.000246362
0.00024329
0.00023984
0.000235951
0.000231558
0.00022659
0.000220986
0.000214675
0.000207609
0.000199825
0.000191479
0.000182739
0.000173747
0.000164583
0.000155327
0.000146056
0.00013684
0.000127744
0.000118832
0.000110162
0.000101715
9.4112e-05
8.77047e-05
8.54105e-05
9.31959e-05
0.000239051
0.000238154
0.00023702
0.000235728
0.000234607
0.000233375
0.000232111
0.000230895
0.000229651
0.000228401
0.000227141
0.00022583
0.00022447
0.000223038
0.00022152
0.000219908
0.000218189
0.000216361
0.000214425
0.000212388
0.00021029
0.000208092
0.000205804
0.000203487
0.000201111
0.000198615
0.000196004
0.000193347
0.000190743
0.000188311
0.000186183
0.000184496
0.000183335
0.000183036
0.000183151
0.000184718
0.000187673
0.000186157
0.000191336
0.000239769
0.000240356
0.000241139
0.000241854
0.000242305
0.00024254
0.000242493
0.000242086
0.000241301
0.000240189
0.000238799
0.000237151
0.000235277
0.000233187
0.000230852
0.000228234
0.00022529
0.00022196
0.000218189
0.000213904
0.000209037
0.000203509
0.000197261
0.000190315
0.000182798
0.000174862
0.000166619
0.000158145
0.000149505
0.000140762
0.00013198
0.000123208
0.000114494
0.000105867
9.7269e-05
8.92082e-05
8.21436e-05
7.91252e-05
8.60272e-05
0.00022427
0.000223608
0.000222743
0.000221738
0.000220898
0.000219962
0.000218998
0.000218083
0.000217141
0.000216196
0.000215241
0.000214241
0.0002132
0.000212096
0.000210917
0.000209655
0.000208298
0.000206846
0.000205294
0.000203649
0.000201945
0.000200148
0.00019826
0.000196335
0.000194349
0.000192243
0.000190019
0.000187735
0.000185476
0.000183343
0.00018145
0.000179926
0.000178841
0.00017848
0.000178541
0.000179513
0.000181999
0.000180923
0.000182869
0.000224789
0.000225209
0.000225799
0.000226317
0.000226613
0.00022673
0.000226618
0.000226208
0.000225483
0.000224486
0.000223264
0.00022183
0.00022021
0.000218413
0.000216407
0.000214162
0.000211637
0.000208781
0.000205531
0.000201823
0.000197589
0.000192747
0.000187226
0.000181036
0.000174276
0.000167077
0.000159534
0.000151711
0.000143657
0.000135426
0.000127067
0.000118615
0.000110101
0.00010152
9.27735e-05
8.42504e-05
7.64793e-05
7.27488e-05
7.90665e-05
0.00021057
0.0002101
0.000209463
0.000208701
0.000208098
0.000207416
0.000206706
0.000206047
0.000205363
0.000204679
0.000203986
0.000203253
0.000202483
0.000201661
0.000200773
0.000199812
0.000198771
0.000197644
0.000196431
0.00019513
0.000193776
0.000192335
0.000190806
0.000189232
0.000187598
0.00018585
0.00018398
0.000182041
0.000180102
0.000178248
0.00017658
0.000175212
0.000174198
0.000173781
0.000173774
0.000174317
0.000176123
0.000175472
0.000175471
0.000210925
0.000211209
0.000211638
0.000211989
0.000212152
0.000212171
0.000211997
0.00021158
0.000210899
0.000209996
0.000208909
0.000207647
0.000206235
0.000204679
0.000202947
0.00020101
0.000198833
0.000196367
0.000193558
0.000190341
0.000186649
0.000182404
0.000177523
0.000172007
0.000165933
0.000159409
0.000152515
0.000145302
0.000137806
0.000130069
0.000122123
0.000113989
0.000105678
9.7151e-05
8.82643e-05
7.92739e-05
7.07279e-05
6.62563e-05
7.23073e-05
0.000197852
0.000197543
0.000197093
0.000196537
0.000196133
0.000195662
0.000195172
0.00019473
0.000194266
0.000193803
0.000193333
0.000192828
0.000192294
0.000191713
0.000191076
0.000190376
0.000189606
0.000188761
0.000187841
0.000186841
0.000185794
0.000184668
0.000183455
0.000182198
0.000180879
0.00017945
0.000177902
0.000176279
0.000174636
0.000173043
0.000171584
0.000170364
0.000169427
0.000168952
0.000168863
0.000169092
0.000170182
0.000169725
0.000168722
0.000198073
0.000198247
0.00019854
0.00019875
0.000198801
0.000198735
0.000198507
0.00019808
0.000197432
0.000196603
0.000195626
0.000194504
0.00019326
0.000191901
0.000190395
0.000188712
0.000186826
0.000184689
0.00018225
0.00017945
0.000176226
0.000172495
0.000168176
0.000163258
0.000157799
0.000151892
0.000145597
0.000138955
0.000131988
0.000124723
0.00011718
0.000109362
0.000101259
9.27964e-05
8.37837e-05
7.43253e-05
6.49156e-05
5.96154e-05
6.576e-05
0.000186031
0.000185856
0.000185562
0.000185178
0.00018494
0.000184648
0.000184343
0.000184083
0.000183806
0.00018353
0.000183251
0.000182941
0.000182605
0.00018223
0.000181807
0.000181329
0.000180794
0.000180193
0.000179528
0.000178789
0.00017801
0.000177159
0.000176226
0.000175246
0.000174208
0.000173065
0.000171808
0.000170469
0.000169095
0.000167743
0.000166481
0.000165396
0.000164533
0.000164016
0.000163824
0.000163827
0.000164274
0.000163758
0.000162262
0.000186144
0.000186222
0.000186402
0.000186494
0.000186452
0.000186313
0.000186039
0.0001856
0.000184978
0.000184206
0.000183315
0.00018231
0.000181205
0.000180005
0.000178683
0.000177212
0.000175568
0.000173707
0.00017158
0.000169134
0.00016631
0.000163024
0.000159196
0.000154809
0.000149906
0.000144556
0.000138812
0.0001327
0.000126231
0.000119417
0.000112266
0.000104763
9.68746e-05
8.8497e-05
7.93829e-05
6.94669e-05
5.90817e-05
5.27741e-05
5.9456e-05
0.000175029
0.000174963
0.000174799
0.000174559
0.000174461
0.000174318
0.000174167
0.000174061
0.000173942
0.000173823
0.000173705
0.000173559
0.000173391
0.000173191
0.00017295
0.000172664
0.000172328
0.000171936
0.000171489
0.000170977
0.000170431
0.000169821
0.000169133
0.000168397
0.000167604
0.000166713
0.000165714
0.000164629
0.000163498
0.000162365
0.000161284
0.000160328
0.000159533
0.000158986
0.000158683
0.000158513
0.000158434
0.000157671
0.000155898
0.000175048
0.000175044
0.00017513
0.000175125
0.000175007
0.000174808
0.000174496
0.000174046
0.000173443
0.000172717
0.000171898
0.000170983
0.00016999
0.000168924
0.000167755
0.00016646
0.000165016
0.000163385
0.000161522
0.000159378
0.000156895
0.000153995
0.000150596
0.000146676
0.00014227
0.000137425
0.000132186
0.000126566
0.000120564
0.000114182
0.000107413
0.000100228
9.25662e-05
8.42992e-05
7.5122e-05
6.47789e-05
5.32862e-05
4.56416e-05
5.3461e-05
0.00016477
0.000164797
0.000164741
0.000164621
0.000164638
0.000164622
0.000164599
0.000164621
0.000164633
0.000164647
0.000164662
0.000164654
0.000164628
0.000164576
0.000164489
0.000164365
0.000164198
0.000163984
0.000163724
0.000163411
0.000163062
0.000162663
0.000162186
0.00016166
0.000161081
0.000160412
0.000159639
0.00015878
0.000157865
0.000156928
0.000156012
0.000155173
0.000154445
0.000153877
0.000153466
0.00015314
0.000152673
0.000151589
0.000149578
0.000164707
0.000164634
0.000164641
0.000164559
0.00016438
0.000164132
0.000163789
0.000163331
0.000162744
0.000162055
0.000161292
0.000160454
0.000159553
0.000158595
0.000157552
0.000156403
0.000155128
0.000153691
0.000152052
0.000150165
0.000147975
0.000145406
0.000142382
0.000138877
0.000134911
0.000130524
0.000125745
0.000120579
0.000115017
0.000109049
0.000102653
9.57884e-05
8.83709e-05
8.02491e-05
7.10679e-05
6.0369e-05
4.76647e-05
3.80423e-05
4.79135e-05
0.000155187
0.000155292
0.000155326
0.000155309