/*--------------------------------*- C++ -*----------------------------------*\
| =========                 |                                                 |
| \\      /  F ield         | OpenFOAM: The Open Source CFD Toolbox           |
|  \\    /   O peration     | Version:  2312                                  |
|   \\  /    A nd           | Website:  www.openfoam.com                      |
|    \\/     M anipulation  |                                                 |
\*---------------------------------------------------------------------------*/
FoamFile
{
    version     2.0;
    format      ascii;
    arch        "LSB;label=32;scalar=64";
    class       volSymmTensorField;
    location    "100";
    object      turbulenceProperties:R;
}
// * * * * * * * * * * * * * * * * * * * * * * * * * * * * * * * * * * * * * //

dimensions      [0 2 -2 0 0 0 0];

internalField   nonuniform List<symmTensor> 
10720
(
(0.0107944 0.00198016 -3.60954e-21 0.00887398 -3.1852e-20 0.00992534)
(0.0129269 0.00237829 3.41698e-21 0.0101842 3.07834e-20 0.0116228)
(0.0158348 0.00279153 6.04089e-21 0.0116235 2.62521e-20 0.0138777)
(0.0198079 0.00333539 6.38942e-20 0.0135515 3.4791e-19 0.0168758)
(0.0247577 0.00387163 -1.89382e-19 0.015643 -6.75525e-19 0.0204266)
(0.0312885 0.00428108 -2.3152e-19 0.0180208 -4.58565e-19 0.025004)
(0.0398359 0.00453597 6.7308e-20 0.0208958 2.78243e-21 0.0308221)
(0.0506391 0.00436769 3.90965e-20 0.024271 6.18186e-20 0.0380276)
(0.0643961 0.00346326 1.10119e-19 0.0284696 -8.895e-20 0.0471987)
(0.081763 0.0015732 -1.94003e-20 0.0340065 -1.94642e-20 0.0588401)
(0.103597 -0.00175979 2.31957e-18 0.0415428 9.99185e-19 0.0737639)
(0.131622 -0.00705142 -5.37055e-19 0.0522368 -4.1241e-19 0.0934244)
(0.168678 -0.0150712 1.10956e-18 0.0678393 -1.66479e-18 0.12012)
(0.218283 -0.0270371 5.30758e-19 0.0906722 1.17731e-18 0.156796)
(0.286404 -0.0450045 8.99627e-19 0.124624 -1.59495e-18 0.208466)
(0.383757 -0.0725375 1.81161e-19 0.176644 5.61968e-18 0.284014)
(0.525642 -0.115554 2.874e-17 0.257793 1.42724e-17 0.396884)
(0.746768 -0.18606 -5.7237e-18 0.391838 9.63368e-18 0.576485)
(1.0855 -0.301033 -3.34482e-18 0.611324 -4.69296e-17 0.858805)
(1.69693 -0.515569 2.46187e-18 1.02657 -2.34469e-19 1.37752)
(2.63913 -0.867861 -6.53775e-17 1.71554 -4.84405e-17 2.20111)
(4.85043 -1.70732 1.54747e-16 3.38347 2.60887e-16 4.15704)
(8.22642 -3.07807 -1.07815e-16 6.16298 -3.34466e-16 7.25707)
(19.1734 -7.59841 1.99237e-16 15.489 5.2263e-17 17.4694)
(31.6567 -13.2195 -1.5655e-16 27.6481 -7.49206e-18 29.8415)
(34.7184 -15.1226 1.82296e-17 32.5821 -9.58694e-16 33.7711)
(33.2015 -14.9132 2.08172e-16 33.0499 -5.79149e-17 33.1715)
(31.5002 -14.4666 1.6864e-16 32.8566 3.4716e-16 32.193)
(30.2399 -14.1305 1.21395e-15 32.8163 4.28975e-16 31.5381)
(28.9679 -13.732 1.27131e-15 32.5806 3.7928e-15 30.787)
(27.3662 -13.1304 -2.01616e-15 31.8088 -1.45558e-15 29.6046)
(25.3796 -12.3028 -2.35146e-15 30.4193 -2.49769e-15 27.9228)
(23.1219 -11.3075 -7.99338e-16 28.533 -3.44801e-15 25.8566)
(20.6448 -10.1707 -3.08627e-15 26.1851 -4.53026e-15 23.445)
(17.8982 -8.87074 8.9665e-16 23.2889 2.44662e-15 20.6211)
(14.9318 -7.43511 1.58188e-16 19.8815 1.82861e-15 17.428)
(11.2985 -5.64839 4.72783e-18 15.3738 -4.33066e-18 13.3592)
(8.00722 -4.00731 -1.62864e-15 11.0055 4.58703e-16 9.51095)
(1.70858 -0.858359 -5.06616e-16 2.64509 -2.25438e-15 2.16528)
(0.0089159 0.00164618 1.1958e-21 0.00772688 -2.84478e-21 0.0083516)
(0.00745343 0.00134011 -7.12529e-21 0.00666593 8.06341e-21 0.00711077)
(0.00591115 0.00102688 -2.68986e-20 0.00547841 -2.10153e-20 0.00571876)
(0.00462718 0.000761672 3.88421e-20 0.00440193 -4.4294e-20 0.00452961)
(0.00349086 0.000531165 -5.45551e-20 0.00335851 2.00179e-20 0.00342398)
(0.00258604 0.000353236 -1.55203e-19 0.00246387 2.06934e-19 0.00250673)
(0.00208807 0.000248355 1.13109e-19 0.00192083 1.04273e-19 0.00198062)
(0.00238969 0.000273142 6.62213e-20 0.00205515 -2.4178e-19 0.00220497)
(0.00329036 0.000367517 8.00808e-20 0.00263904 1.80578e-21 0.00296002)
(0.00484936 0.000572298 -7.22047e-20 0.00366024 -2.28315e-20 0.00426154)
(0.00723815 0.000981321 7.6942e-20 0.00516954 1.83152e-19 0.00622354)
(0.0107337 0.00174669 2.06729e-19 0.00727701 -1.03562e-19 0.00904326)
(0.0157096 0.00308736 -2.93843e-19 0.0101864 -6.53371e-21 0.0130165)
(0.0226351 0.00526297 1.46918e-19 0.0142398 2.6467e-20 0.0185501)
(0.0320939 0.0085124 1.15372e-18 0.0199642 4.19392e-20 0.0261879)
(0.0450954 0.0131877 1.12843e-18 0.0282966 -2.68433e-19 0.0369207)
(0.0635501 0.0199069 4.24179e-19 0.0407528 4.9597e-19 0.0524492)
(0.0909124 0.029934 1.40146e-19 0.0599978 5.54089e-19 0.0758578)
(0.133596 0.0456819 2.62783e-19 0.0908995 -1.47948e-19 0.112794)
(0.202505 0.0714813 4.65444e-19 0.142165 2.95953e-20 0.173132)
(0.320824 0.116501 -7.24412e-19 0.232376 -4.36524e-18 0.277812)
(0.525742 0.196232 -2.925e-18 0.39341 3.69178e-20 0.461582)
(0.920771 0.353396 2.92119e-18 0.713611 3.40374e-18 0.820859)
(1.64668 0.651347 1.46378e-18 1.32852 1.73456e-19 1.49503)
(3.27456 1.33548 1.04744e-16 2.75974 -1.27715e-17 3.03345)
(6.45175 2.70618 6.61357e-19 5.67685 -2.003e-18 6.09791)
(14.3661 6.18171 -1.80398e-19 13.1827 -6.64891e-18 13.8544)
(26.0964 11.4933 -1.86658e-18 24.9545 5.73452e-20 25.672)
(33.4994 15.0687 3.85461e-18 33.3636 5.22015e-20 33.6023)
(35.7847 16.4001 4.01123e-16 37.0602 -2.43669e-17 36.5762)
(35.836 16.691 -1.85964e-17 38.4994 -9.15639e-19 37.2946)
(35.2385 16.6415 -5.29761e-17 39.17 1.39255e-16 37.3082)
(34.3621 16.4206 -2.46907e-15 39.4234 -3.21498e-16 36.979)
(33.2739 16.0613 -4.34406e-15 39.3124 2.89726e-16 36.3658)
(32.0052 15.5823 3.91874e-15 38.8676 3.61253e-16 35.499)
(30.5958 15.007 -2.28956e-17 38.1415 -7.03729e-17 34.4235)
(28.8251 14.2327 -2.42019e-17 36.8855 -1.70602e-16 32.9053)
(26.9432 13.3767 -1.54296e-16 35.3321 1.69591e-16 31.1846)
(21.671 10.8305 -3.77178e-15 29.5166 -5.13108e-17 25.606)
(0.00210544 -0.000132546 -1.20289e-21 0.00173347 -3.47125e-21 0.00189656)
(0.00207638 -0.000162078 1.37994e-21 0.00176176 4.74369e-21 0.00189254)
(0.0020205 -0.000187581 5.46524e-22 0.00178645 1.72195e-22 0.00187114)
(0.00193312 -0.000198625 3.51969e-21 0.00178058 3.84619e-22 0.00181936)
(0.00181875 -0.000197627 5.50636e-21 0.00174542 2.56458e-20 0.00174075)
(0.00169167 -0.000187452 2.05105e-20 0.00169272 3.73636e-20 0.00164707)
(0.00155393 -0.000169476 -8.11534e-21 0.00161258 1.36507e-21 0.00153488)
(0.00140946 -0.000146984 -7.35011e-21 0.00150791 -2.25754e-21 0.00140827)
(0.00127105 -0.000123853 -4.94433e-20 0.00139412 -5.35278e-20 0.00128071)
(0.00113948 -0.000102306 -1.50008e-20 0.00127213 -5.5867e-21 0.00115308)
(0.00101847 -8.36891e-05 -1.42147e-19 0.00115021 -1.35988e-19 0.00103145)
(0.000916708 -6.93834e-05 -1.74868e-21 0.0010419 2.08471e-20 0.000926028)
(0.000828449 -5.88145e-05 -6.83666e-20 0.000941842 5.11992e-22 0.000832321)
(0.000792482 -5.80562e-05 4.87156e-20 0.000900993 2.88193e-20 0.000789898)
(0.000863465 -7.72212e-05 -1.33101e-19 0.000987273 -3.91256e-20 0.000848866)
(0.00112474 -0.000146295 5.16676e-19 0.00129499 1.23535e-19 0.00107397)
(0.00188866 -0.000401895 -1.15998e-18 0.00214007 -9.54723e-19 0.00169419)
(0.00392675 -0.00121228 -2.69082e-18 0.0040918 -9.35637e-19 0.00324605)
(0.00889673 -0.00315383 -5.95671e-18 0.0081763 2.37547e-18 0.00707765)
(0.0227091 -0.00831154 1.33161e-18 0.0189546 9.5715e-22 0.0181653)
(0.057234 -0.021161 1.22361e-17 0.0454127 1.41134e-17 0.0468895)
(0.173642 -0.0651439 -2.80784e-17 0.135776 -5.49377e-17 0.146318)
(0.452659 -0.173929 1.89172e-18 0.358733 7.90317e-17 0.392759)
(1.37723 -0.545823 1.9635e-18 1.12832 -3.29503e-17 1.22981)
(3.44528 -1.40815 -0 2.93683 -0 3.1596)
(5.94572 -2.49869 -9.58925e-18 5.27274 2.09167e-16 5.59034)
(8.48273 -3.65885 -4.47711e-17 7.83688 2.53328e-17 8.16761)
(10.6347 -4.7025 -5.89082e-17 10.2627 -2.46509e-16 10.4777)
(11.8666 -5.37322 -7.91045e-16 11.993 -1.56866e-15 11.9651)
(11.7661 -5.44519 2.86302e-16 12.4686 -5.33734e-15 12.1425)
(10.4916 -4.94847 -9.61905e-17 11.6482 3.97086e-15 11.0745)
(8.82654 -4.22701 -2.98066e-16 10.23 5.23694e-15 9.50945)
(7.31554 -3.54152 -2.07884e-15 8.78616 3.03979e-15 8.01329)
(6.13216 -2.99014 5.42609e-15 7.56323 1.10779e-14 6.80378)
(5.24943 -2.57269 -2.76008e-16 6.59776 -1.82584e-15 5.88507)
(4.58767 -2.25397 5.52849e-15 5.81986 -2.91749e-15 5.17162)
(4.11786 -2.02967 -1.83673e-16 5.27732 3.82132e-17 4.67773)
(3.7097 -1.80888 2.41798e-15 4.61015 -8.71349e-16 4.11146)
(3.88649 -1.95234 5.10413e-15 5.1775 7.49835e-15 4.68007)
(0.0021019 -9.35029e-05 1.6927e-21 0.00168725 3.77189e-21 0.00187608)
(0.00207992 -5.27928e-05 3.07511e-23 0.00164112 -2.94023e-20 0.00184431)
(0.00202606 -2.65599e-06 -1.95666e-20 0.00158358 -2.53402e-20 0.00179399)
(0.00192982 5.22215e-05 7.549e-21 0.001515 6.51364e-20 0.00171721)
(0.00178018 0.000101389 5.47749e-20 0.00143115 -5.00348e-20 0.00160588)
(0.00159076 0.000135349 -2.67328e-20 0.00133559 -5.64756e-20 0.0014665)
(0.00140599 0.000150369 -2.95037e-20 0.00124651 -1.09958e-19 0.00133236)
(0.00121577 0.000147012 -9.34579e-20 0.00114972 1.69273e-20 0.00118876)
(0.00102325 0.000129467 -2.98799e-20 0.00104156 7.82224e-20 0.00103508)
(0.000849736 0.000102775 -2.20056e-20 0.000926375 2.39786e-21 0.000886169)
(0.000705896 7.53733e-05 -1.33977e-21 0.000809711 -4.45368e-20 0.00075204)
(0.00058839 5.25312e-05 -9.33037e-22 0.000696894 -1.73873e-20 0.000634331)
(0.000490795 3.54363e-05 1.32644e-20 0.000591491 3.41913e-20 0.000531467)
(0.000408616 2.36955e-05 -1.51746e-20 0.000495607 -5.95229e-21 0.000441979)
(0.000339603 1.61743e-05 -6.2328e-21 0.000411281 -2.13563e-20 0.000365567)
(0.000282174 1.14748e-05 -2.97254e-20 0.000339493 -3.2326e-21 0.000301713)
(0.00023382 8.52066e-06 -3.23506e-21 0.00027827 3.83378e-22 0.000248028)
(0.00019312 6.56559e-06 -1.45697e-22 0.000226527 -1.52189e-21 0.000203111)
(0.000157196 5.00401e-06 -2.47688e-21 0.000180975 1.30397e-21 0.000163849)
(0.000123734 3.54751e-06 2.65018e-21 0.000139152 -8.28712e-22 0.000127762)
(8.9367e-05 2.06108e-06 -1.28534e-20 9.7555e-05 6.46116e-21 9.13522e-05)
(5.39018e-05 8.00507e-07 -9.20633e-22 5.68568e-05 1.64058e-22 5.45579e-05)
(2.20183e-05 1.36168e-07 2.37445e-23 2.24977e-05 -9.19847e-23 2.21123e-05)
(5.69353e-06 9.14081e-09 5.34587e-23 5.72397e-06 -1.88184e-24 5.69836e-06)
(0.000148033 6.89814e-06 -3.3411e-20 0.000168046 3.03489e-21 0.000150282)
(0.00153349 0.000439401 -1.65134e-18 0.00259694 1.37392e-19 0.00160808)
(0.00993133 0.00318227 -1.26484e-20 0.0165191 1.57488e-19 0.0101893)
(0.0623937 0.0215149 6.40785e-21 0.100123 3.35265e-19 0.0631685)
(0.17853 0.0677723 -6.54238e-20 0.273626 -8.88996e-22 0.179881)
(0.327533 0.136465 3.16775e-18 0.474428 1.90355e-17 0.331175)
(0.47873 0.213246 1.09413e-18 0.655093 -2.12296e-17 0.489285)
(0.60959 0.282038 2.3893e-17 0.798288 -6.90786e-17 0.631991)
(0.714049 0.337153 2.73406e-15 0.911742 1.75828e-16 0.751733)
(0.799232 0.38195 2.5407e-15 1.01112 -3.57744e-16 0.85403)
(0.872941 0.420791 -2.3517e-15 1.10725 -8.24699e-17 0.946348)
(0.946411 0.459014 2.24274e-15 1.20917 2.85592e-16 1.03828)
(1.01914 0.497643 -3.99821e-15 1.3231 -5.77058e-16 1.135)
(1.21412 0.591526 -3.69391e-15 1.55966 -7.04456e-16 1.3443)
(1.64907 0.813925 -3.64173e-15 2.08918 -2.09993e-16 1.88357)
(0.00143439 -9.67147e-05 -4.89945e-22 0.00115994 -7.6415e-22 0.00130724)
(0.0013942 -0.000120504 -1.32699e-20 0.00116618 -2.63633e-20 0.00129295)
(0.00132758 -0.000138938 9.53784e-21 0.00116294 1.69631e-20 0.00126071)
(0.00124015 -0.000147798 1.27045e-20 0.00114797 2.09631e-20 0.0012133)
(0.00114892 -0.000147381 2.33799e-20 0.00113044 3.32165e-20 0.00116214)
(0.00105241 -0.000136984 -7.04569e-20 0.00110553 -1.11928e-19 0.00110477)
(0.000958442 -0.000117575 4.85734e-20 0.00107326 8.57174e-20 0.00104534)
(0.000876948 -9.22945e-05 6.22465e-20 0.00103872 5.71398e-20 0.000990473)
(0.000810174 -6.33182e-05 -3.62482e-21 0.00100312 6.97906e-21 0.000942153)
(0.000761349 -3.37262e-05 4.15279e-20 0.000969277 6.60249e-20 0.000903475)
(0.000729106 -5.76243e-06 -8.28308e-20 0.000937967 -6.92885e-21 0.000873759)
(0.000711401 1.93034e-05 1.16508e-19 0.000910133 1.23164e-19 0.000852663)
(0.000704696 4.06852e-05 5.50724e-20 0.000885236 2.38853e-20 0.000838111)
(0.000709036 5.81772e-05 2.59306e-20 0.000868342 -2.45093e-20 0.000832101)
(0.000723024 7.25074e-05 7.99832e-20 0.00086144 7.71087e-20 0.000834967)
(0.000743977 8.42087e-05 -2.03184e-19 0.000863829 -2.03868e-19 0.000845272)
(0.00072262 8.2938e-05 4.51021e-20 0.00081515 6.77508e-20 0.000803582)
(0.000646655 6.77907e-05 3.00309e-19 0.000707975 8.69158e-20 0.000701613)
(0.000238395 9.14588e-06 1.18464e-20 0.000245271 8.6281e-21 0.000244625)
(0.000127908 2.70679e-06 -1.06439e-21 0.000129657 -7.12527e-23 0.000129477)
(0.00137997 0.000334439 1.48313e-19 0.00157042 -3.31018e-19 0.0015458)
(0.00850455 0.00419059 3.67373e-19 0.0106262 3.05942e-18 0.0102692)
(0.000242831 1.60962e-05 2.84478e-20 0.000249436 -6.45757e-21 0.000248184)
(0.000178857 1.71351e-05 -3.27396e-20 0.000181344 -1.37925e-20 0.000181754)
(0.00189751 -0.000322912 4.53027e-20 0.000847801 9.037e-20 0.00137275)
(0.034118 -0.0129916 -1.41992e-17 0.0264617 4.15262e-18 0.0297797)
(0.156343 -0.0644871 6.88405e-18 0.135338 2.35631e-18 0.14406)
(0.495843 -0.213427 -9.50338e-18 0.45896 -6.49865e-19 0.473575)
(1.26851 -0.561748 -2.8082e-16 1.23348 2.66234e-16 1.24502)
(2.64197 -1.19566 -6.19597e-16 2.677 2.05182e-17 2.65304)
(4.43287 -2.04428 2.32638e-15 4.67019 -6.56241e-16 4.54842)
(5.98091 -2.80538 2.23669e-15 6.54804 1.07559e-15 6.2689)
(6.68396 -3.18194 -4.43676e-17 7.59393 2.81071e-15 7.15096)
(6.51715 -3.13858 5.09244e-15 7.64865 -3.43954e-15 7.09544)
(5.89562 -2.86187 4.10402e-15 7.09522 -2.16608e-15 6.5029)
(5.1763 -2.52077 -7.62431e-15 6.30383 -2.2409e-15 5.74016)
(4.59416 -2.24232 -1.89886e-17 5.63401 -1.11273e-15 5.11722)
(4.00113 -1.91619 5.24495e-15 4.64952 -6.65078e-16 4.30612)
(4.27493 -2.11605 -9.69099e-15 5.53232 3.70443e-15 4.90928)
(0.0014656 -6.76041e-05 -3.26039e-21 0.00115492 -6.4699e-21 0.00131908)
(0.00147894 -3.71063e-05 -2.10209e-21 0.00114776 2.82038e-21 0.00131988)
(0.00148073 -3.72332e-07 3.00515e-20 0.00114206 3.26967e-20 0.00131623)
(0.00144948 3.78048e-05 -2.0146e-20 0.00112596 -2.49943e-21 0.00129029)
(0.00137684 7.3534e-05 2.81729e-21 0.00109441 1.02102e-20 0.00123647)
(0.00126327 0.000100128 4.8439e-21 0.00104397 6.15303e-20 0.00115334)
(0.00113177 0.000114856 5.11927e-21 0.000985659 3.14047e-20 0.00105912)
(0.00100198 0.00011885 1.23719e-19 0.000929642 5.71839e-20 0.000966454)
(0.000865227 0.000110951 2.7385e-20 0.00085889 -2.15578e-20 0.000862569)
(0.000725197 9.3897e-05 5.45743e-20 0.000767639 5.92981e-21 0.000747394)
(0.000593121 7.31221e-05 -6.09834e-20 0.000663825 -2.01373e-20 0.000630452)
(0.000477051 5.31004e-05 -3.57291e-20 0.000559048 5.07371e-20 0.000521209)
(0.000379184 3.59911e-05 5.63296e-20 0.000460993 -2.57371e-20 0.000424447)
(0.000298908 2.25408e-05 2.76342e-20 0.000373541 -1.76848e-22 0.000341723)
(0.000236329 1.27759e-05 -3.32006e-20 0.000300873 2.31979e-20 0.000274959)
(0.000188922 5.94542e-06 -1.83682e-20 0.000242944 3.53374e-20 0.000222965)
(0.000154393 1.36221e-06 5.49464e-20 0.000198862 -2.64808e-20 0.000184108)
(0.000130018 -1.6805e-06 4.37313e-20 0.00016642 -8.39001e-21 0.000155987)
(0.00011371 -3.74507e-06 1.61754e-20 0.000143765 -2.03298e-21 0.000136622)
(0.000103242 -5.30492e-06 -5.64345e-21 0.000128268 1.55e-20 0.000123711)
(9.71375e-05 -6.62657e-06 8.47953e-20 0.000118175 1.5127e-21 0.000115633)
(9.47041e-05 -7.98673e-06 2.16517e-21 0.000112234 -9.95073e-21 0.000111526)
(9.56555e-05 -9.55217e-06 -2.14387e-22 0.000109474 -5.77642e-22 0.000110798)
(9.97567e-05 -1.11252e-05 -1.21316e-21 0.000108169 -4.99267e-21 0.00011274)
(0.000105633 -1.18559e-05 -8.11754e-23 0.000106841 2.12637e-21 0.000115838)
(0.000110303 -1.10341e-05 1.33166e-19 0.000104539 -8.17257e-21 0.000117425)
(0.000113823 -9.26463e-06 -1.4604e-21 0.000102864 9.83931e-23 0.000118378)
(7.5071e-05 -3.33556e-06 -5.64395e-21 6.85875e-05 -1.46659e-23 7.63684e-05)
(0.00105056 -0.000150964 -4.55906e-21 0.000582214 5.28128e-22 0.00110159)
(0.00498751 -0.00032438 -3.838e-18 0.00250713 -1.30048e-19 0.00514354)
(0.0124816 0.00100863 2.43844e-17 0.00623554 2.48065e-18 0.0127512)
(0.0245944 0.00721996 -2.0524e-18 0.0157317 -2.69992e-20 0.0251251)
(0.0512668 0.0214649 -3.36876e-16 0.0444875 2.68494e-17 0.0528221)
(0.0983131 0.0449297 2.40916e-19 0.0996767 3.868e-17 0.10247)
(0.162541 0.0763646 6.53331e-18 0.177518 -6.11444e-17 0.171585)
(0.237474 0.112667 2.07902e-17 0.267916 4.9039e-17 0.252546)
(0.313561 0.149994 -1.07014e-16 0.362206 2.48411e-16 0.337264)
(0.381091 0.17749 2.44753e-15 0.412454 7.03644e-16 0.394433)
(0.607376 0.290833 4.95941e-15 0.691303 1.70395e-15 0.662151)
(0.0011817 -7.85604e-05 -2.65014e-21 0.000957578 -3.789e-21 0.00106655)
(0.00116855 -9.69578e-05 -4.82812e-21 0.000974837 -8.29952e-21 0.00106814)
(0.00114239 -0.000113472 1.02285e-20 0.000991229 1.26826e-20 0.00106197)
(0.00110878 -0.00012507 1.05744e-20 0.00100662 1.39134e-20 0.0010516)
(0.00106531 -0.000130371 1.44857e-21 0.00101515 -1.56188e-22 0.00103272)
(0.00101266 -0.000129283 -2.79112e-21 0.00101575 8.70909e-21 0.00100502)
(0.000955573 -0.000122205 9.94279e-20 0.00100777 9.88068e-20 0.000970726)
(0.000894601 -0.000110085 -9.39677e-20 0.000988012 -1.16667e-19 0.000928553)
(0.000832417 -9.44671e-05 2.11147e-20 0.000957875 5.54948e-21 0.000880416)
(0.000770627 -7.72127e-05 1.21858e-19 0.000917453 8.97457e-20 0.000827477)
(0.000710148 -5.97781e-05 9.90739e-20 0.000868349 9.67427e-20 0.000770894)
(0.000652127 -4.33897e-05 1.06143e-19 0.000813153 3.34349e-20 0.000712627)
(0.00059708 -2.89057e-05 -1.17399e-19 0.000754074 -8.7425e-20 0.000654057)
(0.000543516 -1.66482e-05 -7.67369e-20 0.000691141 -7.24299e-20 0.000594647)
(0.000491394 -6.81078e-06 7.36307e-21 0.000625999 -2.38532e-20 0.000535282)
(0.000439487 6.2976e-07 -1.81278e-19 0.000558525 1.05524e-20 0.000475283)
(0.000383756 6.80236e-06 -5.14122e-20 0.0004847 -6.3234e-20 0.000411337)
(0.00032881 1.16418e-05 -2.90357e-19 0.000410171 -2.22131e-19 0.000348377)
(0.000275053 1.49295e-05 2.85134e-20 0.000334488 -3.91259e-20 0.000287269)
(0.000212957 1.38178e-05 9.37855e-21 0.000246117 -2.15827e-20 0.000218712)
(0.00016089 9.982e-06 -5.58508e-20 0.000175519 -1.53713e-22 0.000163263)
(1.49603e-05 8.52257e-08 5.86763e-23 1.50409e-05 1.20232e-23 1.49753e-05)
(2.0499e-05 1.4253e-07 -3.76935e-22 2.05893e-05 -7.7602e-23 2.05196e-05)
(1.38466e-05 5.82383e-08 -4.25459e-23 1.38698e-05 4.63274e-23 1.3852e-05)
(0.00179836 0.000660789 1.1316e-19 0.00192839 7.54168e-21 0.00181231)
(0.00871854 0.00388144 2.59564e-18 0.00879661 1.36774e-18 0.00849943)
(0.0220793 0.00952331 -6.26604e-19 0.0208143 2.65273e-19 0.0208633)
(0.0438467 0.0181932 1.99271e-18 0.0386723 1.23794e-19 0.0401959)
(0.00393524 0.00150901 3.39966e-18 0.00312377 1.40582e-19 0.00343006)
(0.014629 0.00275789 -2.63331e-18 0.00697941 2.92157e-17 0.010139)
(0.108818 -0.043598 -1.83957e-16 0.0903747 -1.68873e-16 0.0980662)
(0.56956 -0.254708 8.18779e-16 0.564148 -7.65082e-16 0.564514)
(1.6148 -0.747194 1.15772e-15 1.71491 -1.10443e-16 1.66276)
(3.04068 -1.43537 -3.57649e-16 3.38401 -4.19351e-15 3.21264)
(4.22986 -2.02456 -3.994e-15 4.88045 -1.07122e-15 4.55991)
(4.78053 -2.30527 4.69605e-16 5.63737 2.38316e-15 5.21374)
(4.86703 -2.35724 -7.46791e-15 5.81235 1.08187e-15 5.34847)
(4.57906 -2.17988 -5.46325e-15 5.22077 9.89847e-16 4.88944)
(4.76353 -2.32047 5.676e-15 5.78889 -4.75663e-15 5.29072)
(0.001183 -5.64014e-05 -1.15973e-21 0.000936052 6.44118e-22 0.00105782)
(0.00117511 -3.33946e-05 3.8544e-21 0.000915391 2.25652e-20 0.00104393)
(0.00115347 -5.54274e-06 1.39714e-20 0.000891137 2.38224e-20 0.00102227)
(0.00111692 2.32873e-05 2.10987e-20 0.000866359 -1.11162e-20 0.000991871)
(0.00105951 5.04691e-05 -4.10859e-20 0.000837581 -2.6615e-20 0.000948749)
(0.000984069 7.21901e-05 -8.26e-21 0.000805064 -3.97051e-20 0.00089444)
(0.000899856 8.64388e-05 -6.16011e-20 0.000772129 -4.14822e-20 0.000836094)
(0.000806017 9.1961e-05 -6.70937e-20 0.000733217 3.58344e-21 0.000770038)
(0.000705023 8.85335e-05 -1.01647e-20 0.000683629 -1.27262e-20 0.000694858)
(0.000605135 7.83229e-05 2.664e-20 0.000625166 -1.70687e-20 0.000615615)
(0.000513807 6.46139e-05 1.84022e-20 0.000562338 4.21005e-20 0.000538225)
(0.000435012 5.03778e-05 4.92485e-20 0.00049986 -1.98206e-20 0.000467072)
(0.000368827 3.74357e-05 -4.09877e-20 0.000440455 -2.91602e-20 0.000403679)
(0.00031398 2.66822e-05 -1.6052e-21 0.000385793 1.1413e-20 0.00034831)
(0.000269469 1.84357e-05 4.14415e-20 0.000337584 -1.06202e-20 0.000301322)
(0.000233359 1.23875e-05 7.58851e-20 0.000295988 -8.76953e-21 0.00026193)
(0.00020435 8.12035e-06 -5.33607e-20 0.000261075 -5.3371e-21 0.000229519)
(0.000181052 5.15445e-06 -1.0761e-20 0.000232182 -1.52033e-20 0.000203076)
(0.000162585 3.0524e-06 -4.69883e-21 0.000208828 2.78972e-21 0.0001819)
(0.000147625 1.42722e-06 7.645e-20 0.00018967 -2.45177e-20 0.000164683)
(0.000135527 4.46346e-08 1.04786e-20 0.000173994 -1.26583e-20 0.000150691)
(0.000125361 -1.2937e-06 -7.32252e-20 0.000160616 1.71697e-20 0.000138862)
(0.000116229 -2.69712e-06 -1.96409e-21 0.000148269 6.35692e-21 0.000128079)
(0.000106449 -4.042e-06 -7.04337e-22 0.000134703 -3.45462e-21 0.000116395)
(9.62936e-05 -4.85442e-06 2.98724e-22 0.00012045 -2.64473e-23 0.000104074)
(8.80912e-05 -5.04928e-06 -5.39841e-20 0.000108867 2.45764e-22 9.38481e-05)
(8.18013e-05 -4.88472e-06 -1.2475e-22 9.98889e-05 1.23102e-23 8.58703e-05)
(7.83012e-05 -4.7907e-06 1.2033e-20 9.49784e-05 -5.74914e-22 8.11616e-05)
(6.68839e-05 -3.75861e-06 -4.78382e-22 7.93303e-05 -6.89605e-24 6.83796e-05)
(7.57833e-05 -5.67963e-06 4.93553e-23 9.33795e-05 -3.23604e-21 7.70489e-05)
(1.42947e-05 -2.60271e-07 -2.94054e-21 1.50116e-05 1.10627e-22 1.43098e-05)
(1.7899e-05 -6.49144e-07 -2.1284e-22 1.94287e-05 -1.3148e-23 1.78132e-05)
(0.000250568 -5.91781e-05 4.66867e-20 0.000373278 -1.28147e-19 0.000219544)
(0.000465686 4.51834e-05 2.36666e-17 0.000505064 3.57283e-18 0.000301092)
(0.0029405 0.00109765 3.97535e-19 0.00225211 3.94302e-20 0.00250211)
(0.0123461 0.00488374 -2.31852e-16 0.00988185 -2.734e-17 0.0114075)
(0.0346755 0.0146331 1.4962e-15 0.0304752 2.1414e-16 0.0336757)
(0.0839042 0.0338704 3.07338e-17 0.0694315 -1.27073e-16 0.0776574)
(0.260527 0.119085 2.39757e-16 0.264629 -1.33296e-15 0.270712)
(0.000901921 -6.02486e-05 -2.6613e-21 0.000730184 -3.01367e-21 0.000816972)
(0.00088683 -7.39888e-05 -5.5044e-21 0.000739336 -7.58221e-21 0.000814567)
(0.000863298 -8.61191e-05 1.87035e-20 0.000748409 2.35763e-20 0.000807547)
(0.000831908 -9.43715e-05 -7.77364e-20 0.000754908 -9.39279e-20 0.000795632)
(0.000793421 -9.79024e-05 1.92355e-20 0.000756947 2.22143e-20 0.000778039)
(0.000748134 -9.64207e-05 4.11087e-20 0.00075342 4.14335e-20 0.000754222)
(0.000698935 -8.9958e-05 -3.6588e-20 0.00074328 -5.14629e-20 0.000725341)
(0.000647759 -7.91767e-05 -1.76518e-20 0.000725642 1.9418e-21 0.000691803)
(0.000596566 -6.50593e-05 -1.39682e-19 0.00070076 -1.2581e-19 0.000654645)
(0.00054798 -4.90057e-05 -2.4208e-20 0.00066993 -5.01658e-20 0.000615954)
(0.000503437 -3.2249e-05 3.35458e-21 0.00063453 -1.12247e-20 0.00057701)
(0.000464212 -1.59195e-05 -7.23284e-20 0.00059646 -8.49399e-20 0.000539409)
(0.000431059 -9.06623e-07 3.45711e-20 0.0005576 3.87589e-20 0.000504477)
(0.000404347 1.21926e-05 -1.38361e-19 0.000519765 -7.01336e-20 0.000473269)
(0.000383895 2.29979e-05 2.80683e-20 0.000484305 1.56184e-20 0.000446295)
(0.000370047 3.15177e-05 1.33783e-19 0.000453154 1.07634e-19 0.00042471)
(0.000360777 3.75188e-05 -1.80962e-19 0.000426103 -5.07466e-20 0.000406966)
(0.000350927 4.08247e-05 -3.33023e-20 0.000399305 1.47797e-19 0.00038831)
(0.000336123 4.1655e-05 -1.12345e-20 0.000368595 -1.88039e-20 0.000364626)
(0.000314044 3.99672e-05 -1.34128e-19 0.000332034 -2.06894e-20 0.000333869)
(0.000271616 3.28269e-05 1.23049e-19 0.00027707 7.45036e-20 0.000282465)
(0.000210754 2.15997e-05 2.84816e-21 0.000209184 -4.22727e-21 0.000214698)
(5.30124e-05 1.48189e-06 4.87519e-21 5.264e-05 1.3642e-21 5.30962e-05)
(9.04748e-06 4.28253e-08 1.01418e-22 9.03139e-06 3.3857e-23 9.04563e-06)
(3.83893e-06 7.34338e-09 -1.63791e-24 3.83543e-06 -1.60169e-25 3.83802e-06)
(1.5328e-09 1.12532e-15 2.69573e-32 1.5328e-09 -1.08907e-31 1.5328e-09)
(0 0 0 0 -0 0)
(0 0 -0 0 -0 0)
(0.00103314 0.000292558 -4.07291e-19 0.000869898 -2.69495e-20 0.000960643)
(0.0126713 0.00489995 6.49432e-19 0.00991147 3.39767e-20 0.0113748)
(0.0427512 0.0162431 -4.3224e-18 0.0327262 2.14713e-18 0.0378527)
(0.0154475 0.00555132 -3.5138e-17 0.0110725 -2.50619e-17 0.0132625)
(0.0472751 0.0117112 -2.33025e-17 0.0248567 -7.17209e-17 0.0359448)
(0.188813 -0.0748032 -2.12532e-15 0.153327 2.05416e-16 0.170404)
(0.96824 -0.444248 3.83459e-16 1.00904 1.2435e-15 0.987504)
(2.35941 -1.11399 -5.76827e-19 2.62827 9.0164e-20 2.49281)
(3.74052 -1.78882 -2.14358e-16 4.30484 2.64257e-15 4.02761)
(4.54382 -2.14823 8.62396e-17 5.08858 -1.07627e-16 4.80402)
(5.00646 -2.40861 -9.43792e-15 5.83596 2.20008e-15 5.45265)
(0.000909604 -4.39512e-05 5.50285e-21 0.00071936 1.08918e-21 0.000815501)
(0.000910236 -2.68072e-05 -1.60795e-20 0.000708861 -2.04948e-20 0.000810051)
(0.000900805 -6.13621e-06 -1.31014e-20 0.000695674 1.8909e-20 0.000798894)
(0.000877392 1.55633e-05 4.56971e-20 0.000679484 1.40019e-20 0.000778673)
(0.000838327 3.64086e-05 -1.17519e-20 0.00065993 -7.12756e-20 0.000749056)
(0.000785841 5.38116e-05 -3.00643e-20 0.000637767 3.58394e-20 0.000711569)
(0.000726302 6.62967e-05 6.93517e-20 0.000615829 4.96905e-20 0.00067101)
(0.000659394 7.25645e-05 -2.87078e-20 0.000590395 -4.92737e-20 0.000624945)
(0.000586856 7.21683e-05 -5.2381e-20 0.000558037 -1.78179e-20 0.000572542)
(0.000513696 6.63181e-05 -3.96353e-20 0.000519047 1.65327e-20 0.000516514)
(0.000443792 5.69766e-05 4.98465e-20 0.000474471 -3.40701e-21 0.000459314)
(0.000379817 4.62386e-05 -3.39577e-20 0.000426565 -1.58943e-20 0.00040344)
(0.000322738 3.56754e-05 -3.36899e-20 0.000377583 2.32105e-20 0.000350541)
(0.000272618 2.62401e-05 3.20613e-20 0.000329486 9.30194e-21 0.000301618)
(0.000229545 1.84495e-05 -5.35681e-20 0.000284339 1.14571e-20 0.000257718)
(0.000193126 1.23394e-05 -6.71321e-21 0.000243564 -2.75893e-20 0.000219359)
(0.000162879 7.72685e-06 1.06193e-20 0.000208003 1.34948e-20 0.000186704)
(0.000138212 4.30844e-06 -5.46168e-20 0.00017794 5.11211e-21 0.000159578)
(0.000118578 1.77246e-06 2.10744e-20 0.000153336 -1.4283e-21 0.000137666)
(0.000103177 -1.85718e-07 -8.35978e-20 0.000133548 9.13995e-21 0.00012025)
(9.13555e-05 -1.79359e-06 -7.46217e-21 0.000117909 2.11033e-21 0.000106656)
(8.23498e-05 -3.23061e-06 6.65073e-20 0.000105443 2.21226e-22 9.60248e-05)
(7.5405e-05 -4.59136e-06 6.11623e-20 9.50666e-05 -1.13807e-20 8.74371e-05)
(6.92263e-05 -5.79406e-06 -5.35201e-20 8.49417e-05 4.38301e-21 7.93866e-05)
(6.29494e-05 -6.51183e-06 -5.81067e-22 7.42188e-05 2.09037e-22 7.10099e-05)
(5.70849e-05 -6.63984e-06 -5.05348e-20 6.41164e-05 6.47401e-21 6.31251e-05)
(5.28852e-05 -6.42324e-06 -3.17499e-22 5.61678e-05 1.44549e-23 5.72291e-05)
(5.0768e-05 -5.99196e-06 5.45502e-24 5.07593e-05 2.85475e-22 5.37083e-05)
(5.09673e-05 -5.55405e-06 1.25925e-22 4.8116e-05 -1.74382e-23 5.27871e-05)
(4.92647e-05 -4.57594e-06 1.7221e-20 4.45938e-05 1.06426e-21 5.00605e-05)
(5.61483e-05 -5.32922e-06 -1.38999e-23 4.84534e-05 -2.87685e-21 5.6274e-05)
(5.89955e-07 -7.07698e-10 -1.51831e-25 5.88733e-07 -2.39044e-26 5.89866e-07)
(0.000154779 -2.92738e-05 -9.71095e-19 0.000100077 -1.25307e-19 0.000146714)
(0.000658353 -0.000160032 -5.44407e-18 0.00034945 -4.07577e-19 0.000588691)
(0.000479433 -0.000114613 2.09824e-20 0.00024831 6.05333e-21 0.000408263)
(0.000343131 -7.20182e-05 -6.0383e-18 0.000166661 -8.89184e-19 0.00027217)
(0.00102498 -0.000120984 8.54638e-19 0.000416883 -6.15679e-18 0.000748162)
(0.00356576 0.000230986 1.40811e-18 0.00140015 2.66819e-19 0.00242539)
(0.0541119 0.0218501 -5.73474e-16 0.0444064 4.43172e-17 0.051345)
(0.000732746 -4.93254e-05 6.20264e-21 0.000593597 5.76772e-21 0.000662862)
(0.00072542 -6.03755e-05 -4.41471e-21 0.000604447 -3.88555e-21 0.000664688)
(0.000712201 -7.04667e-05 -2.37473e-22 0.000615997 -5.65676e-22 0.000663623)
(0.0006944 -7.7934e-05 -5.9406e-22 0.0006272 -1.98233e-22 0.000660175)
(0.00067183 -8.20239e-05 5.43545e-20 0.000635979 5.41877e-20 0.00065314)
(0.000644505 -8.254e-05 -3.52038e-20 0.000641766 -3.90791e-20 0.000642079)
(0.000614197 -7.93574e-05 -1.78048e-21 0.000643407 6.70461e-21 0.000627467)
(0.000581652 -7.2791e-05 1.17843e-19 0.000639524 1.06394e-19 0.000608918)
(0.000547878 -6.34373e-05 -2.21255e-20 0.000629816 2.79448e-21 0.000586733)
(0.00051411 -5.2223e-05 -1.31498e-19 0.00061417 -8.64902e-20 0.000561558)
(0.000480816 -4.00301e-05 4.06509e-20 0.000592658 3.25566e-20 0.000533614)
(0.000448513 -2.77095e-05 -1.06347e-19 0.000565991 -3.54822e-20 0.000503529)
(0.00041753 -1.60441e-05 -4.03611e-20 0.000535074 -1.55299e-20 0.000471952)
(0.000387911 -5.58815e-06 -6.63558e-20 0.000500873 3.38414e-20 0.000439358)
(0.000359664 3.28332e-06 5.51749e-21 0.000464487 3.05357e-21 0.000406315)
(0.000332866 1.03658e-05 5.00197e-20 0.000427169 1.11732e-20 0.000373507)
(0.000306218 1.56103e-05 7.0806e-20 0.000388333 9.92849e-20 0.000340043)
(0.000277466 1.93192e-05 2.61692e-19 0.000345809 7.05363e-20 0.00030416)
(0.000248197 2.16424e-05 -1.03453e-19 0.000302079 -4.53938e-21 0.000267881)
(0.000220992 2.28186e-05 9.49728e-20 0.000260944 4.12263e-20 0.0002343)
(0.000196267 2.2884e-05 1.40687e-20 0.000223094 -4.09075e-20 0.000203921)
(0.000177775 2.2713e-05 -1.48419e-20 0.00019345 2.70274e-20 0.000180768)
(0.000147187 1.78491e-05 -7.47369e-20 0.000151665 -4.21433e-20 0.000146304)
(9.9584e-05 8.91884e-06 1.40646e-21 9.80135e-05 -1.71775e-21 9.7571e-05)
(4.91399e-05 2.29196e-06 7.92296e-22 4.77867e-05 -1.62257e-22 4.82082e-05)
(1.70242e-08 2.90381e-13 6.24026e-28 1.70239e-08 -1.87566e-28 1.7024e-08)
(3.03793e-06 9.27429e-09 -7.61461e-24 3.02631e-06 -2.74408e-24 3.03121e-06)
(1.64045e-06 2.72367e-09 -2.125e-24 1.63676e-06 -1.07507e-25 1.63837e-06)