/*--------------------------------*- C++ -*----------------------------------*\
| =========                 |                                                 |
| \\      /  F ield         | OpenFOAM: The Open Source CFD Toolbox           |
|  \\    /   O peration     | Version:  2312                                  |
|   \\  /    A nd           | Website:  www.openfoam.com                      |
|    \\/     M anipulation  |                                                 |
\*---------------------------------------------------------------------------*/
FoamFile
{
    version     2.0;
    format      ascii;
    arch        "LSB;label=32;scalar=64";
    class       volSymmTensorField;
    location    "100";
    object      turbulenceProperties:devReff;
}
// * * * * * * * * * * * * * * * * * * * * * * * * * * * * * * * * * * * * * //

dimensions      [0 2 -2 0 0 0 0];

internalField   nonuniform List<symmTensor> 
10720
(
(0.00139069 0.00296171 -5.39875e-21 -0.0014816 -4.76407e-20 9.09094e-05)
(0.00193129 0.00340491 4.89196e-21 -0.00199545 4.40714e-20 6.41631e-05)
(0.00281238 0.00381828 8.26278e-21 -0.00294787 3.59078e-20 0.00013549)
(0.00400707 0.00436361 8.35913e-20 -0.00417806 4.55162e-19 0.000170993)
(0.00562201 0.00485644 -2.37554e-19 -0.00581116 -8.47357e-19 0.000189152)
(0.00786634 0.00516715 -2.79439e-19 -0.00814746 -5.53475e-19 0.000281125)
(0.0108671 0.00529008 7.8498e-20 -0.0112218 3.24501e-21 0.00035473)
(0.0147207 0.00494838 4.42945e-20 -0.0151531 7.00375e-20 0.000432431)
(0.0195838 0.00383012 1.21784e-19 -0.0201484 -9.83726e-20 0.0005646)
(0.0255475 0.00170593 -2.10371e-20 -0.0262382 -2.11063e-20 0.000690637)
(0.0326856 -0.00187796 2.47533e-18 -0.0335352 1.06628e-18 0.00084958)
(0.0412776 -0.00742627 -5.65605e-19 -0.0423274 -4.34333e-19 0.00104982)
(0.0518705 -0.0156981 1.15572e-18 -0.0531632 -1.73404e-18 0.00129263)
(0.065054 -0.0279042 5.47781e-19 -0.0666496 1.21507e-18 0.00159557)
(0.0818439 -0.0460957 9.21441e-19 -0.0838594 -1.63363e-18 0.00201552)
(0.10411 -0.0738312 1.84392e-19 -0.106697 5.7199e-18 0.00258744)
(0.133885 -0.117025 2.91059e-17 -0.137374 1.44541e-17 0.00348838)
(0.176591 -0.187677 -5.77341e-18 -0.181421 9.71735e-18 0.00482972)
(0.234962 -0.30276 -3.36401e-18 -0.241931 -4.71987e-17 0.00696943)
(0.331074 -0.517363 2.47044e-18 -0.341623 -2.35285e-19 0.0105486)
(0.454821 -0.869676 -6.55142e-17 -0.470703 -4.85418e-17 0.0158823)
(0.720867 -1.7091 1.54908e-16 -0.747624 2.6116e-16 0.0267573)
(1.01149 -3.07977 -1.07875e-16 -1.05309 -3.34651e-16 0.0415999)
(1.79651 -7.6 1.99279e-16 -1.88866 5.22739e-17 0.0921528)
(1.94149 -13.221 -1.56568e-16 -2.06758 -7.49291e-18 0.126084)
(1.02797 -15.124 1.82313e-17 -1.10858 -9.58785e-16 0.0806064)
(0.0605729 -14.9145 2.08191e-16 -0.0910801 -5.79203e-17 0.0305072)
(-0.683151 -14.4679 1.68655e-16 0.673397 3.47193e-16 0.00975393)
(-1.29168 -14.1319 1.21406e-15 1.28498 4.29014e-16 0.00670253)
(-1.81072 -13.7333 1.27143e-15 1.80224 3.79315e-15 0.0084868)
(-2.22724 -13.1316 -2.01635e-15 2.21582 -1.45571e-15 0.0114233)
(-2.52785 -12.304 -2.35168e-15 2.51233 -2.49792e-15 0.0155106)
(-2.71553 -11.3086 -7.99416e-16 2.69608 -3.44835e-15 0.0194555)
(-2.78041 -10.1717 -3.08659e-15 2.76041 -4.53072e-15 0.0200025)
(-2.70485 -8.8717 8.96746e-16 2.68646 2.44689e-15 0.0183966)
(-2.48224 -7.43598 1.58207e-16 2.46801 1.82882e-15 0.014238)
(-2.04557 -5.64913 4.72845e-18 2.03023 -4.33123e-18 0.0153451)
(-1.50089 -4.00792 -1.62889e-15 1.49782 4.58772e-16 0.00306886)
(-0.464539 -0.858606 -5.06762e-16 0.472244 -2.25503e-15 -0.00770465)
(0.000916644 0.00258187 1.8755e-21 -0.00094823 -4.46176e-21 3.15858e-05)
(0.000622351 0.00221391 -1.17712e-20 -0.000678617 1.3321e-20 5.62663e-05)
(0.000366921 0.00180819 -4.73647e-20 -0.000395075 -3.70051e-20 2.81534e-05)
(0.000204364 0.00144658 7.37695e-20 -0.000223432 -8.41239e-20 1.90688e-05)
(0.000138228 0.00110564 -1.13558e-19 -0.000137253 4.1668e-20 -9.75484e-07)
(0.000155515 0.000817953 -3.59389e-19 -0.000127386 4.79176e-19 -2.81289e-05)
(0.000233496 0.000633336 2.88442e-19 -0.000192986 2.65911e-19 -4.05099e-05)
(0.000393527 0.000621004 1.50558e-19 -0.000367079 -5.49699e-19 -2.64484e-05)
(0.000639548 0.000718315 1.56518e-19 -0.000633447 3.52941e-21 -6.10067e-06)
(0.000994687 0.000961076 -1.21255e-19 -0.00100224 -3.83416e-20 7.54808e-06)
(0.00150582 0.00143781 1.12734e-19 -0.00152506 2.68351e-19 1.92388e-05)
(0.00224849 0.00228912 2.70928e-19 -0.00228163 -1.35723e-19 3.31354e-05)
(0.00330392 0.00372442 -3.54476e-19 -0.00335903 -7.88191e-21 5.51064e-05)
(0.00473839 0.00599455 1.6734e-19 -0.00482394 3.0146e-20 8.55435e-05)
(0.00659085 0.00933209 1.26482e-18 -0.00670692 4.59777e-20 0.000116075)
(0.00889338 0.0140888 1.20554e-18 -0.00905339 -2.86776e-19 0.00016001)
(0.0118526 0.0208816 4.44946e-19 -0.0120608 5.20252e-19 0.000208274)
(0.0158561 0.0309754 1.45022e-19 -0.016134 5.73366e-19 0.000277835)
(0.0216771 0.0467843 2.69124e-19 -0.0220502 -1.51518e-19 0.000373069)
(0.0303898 0.072641 4.72995e-19 -0.0309295 3.00755e-20 0.000539665)
(0.0442766 0.117715 -7.31959e-19 -0.0450932 -4.41072e-18 0.000816578)
(0.0659202 0.197498 -2.94387e-18 -0.0672664 3.7156e-20 0.00134622)
(0.102739 0.354713 2.93208e-18 -0.105193 3.41642e-18 0.00245471)
(0.156932 0.652712 1.46685e-18 -0.161896 1.7382e-19 0.00496349)
(0.252243 1.33689 1.04854e-16 -0.263118 -1.2785e-17 0.0108756)
(0.376449 2.70761 6.61708e-19 -0.398865 -2.00407e-18 0.0224155)
(0.565176 6.18317 -1.80441e-19 -0.618552 -6.65048e-18 0.0533765)
(0.522139 11.4948 -1.86682e-18 -0.619848 5.73526e-20 0.0977092)
(0.0109641 15.0702 3.85499e-18 -0.124851 5.22066e-20 0.113887)
(-0.689072 16.4015 4.01159e-16 0.586589 -2.43691e-17 0.102483)
(-1.37416 16.6925 -1.85981e-17 1.28952 -9.1572e-19 0.0846317)
(-2.00054 16.643 -5.29808e-17 1.93124 1.39267e-16 0.0692991)
(-2.55963 16.422 -2.46928e-15 2.50212 -3.21527e-16 0.0575111)
(-3.04375 16.0628 -4.34444e-15 2.99533 2.89751e-16 0.048423)
(-3.4524 15.5837 3.91909e-15 3.41069 3.61285e-16 0.0417099)
(-3.79145 15.0084 -2.28976e-17 3.75491 -7.03793e-17 0.0365461)
(-4.04724 14.234 -2.42042e-17 4.01386 -1.70618e-16 0.0333741)
(-4.2105 13.378 -1.54311e-16 4.1792 1.69607e-16 0.0312971)
(-3.92728 10.8316 -3.77217e-15 3.91914 -5.13161e-17 0.00814276)
(0.000558257 -0.000382173 -3.46831e-21 -0.00051426 -1.00087e-20 -4.39967e-05)
(0.00048458 -0.000472703 4.02462e-21 -0.000433007 1.38351e-20 -5.15729e-05)
(0.000377066 -0.000553416 1.61239e-21 -0.000313452 5.08023e-22 -6.36141e-05)
(0.000264725 -0.000592334 1.04963e-20 -0.000190184 1.147e-21 -7.45411e-05)
(0.000152399 -0.000597046 1.66351e-20 -6.91514e-05 7.74777e-20 -8.3248e-05)
(4.44269e-05 -0.000573765 6.27796e-20 4.76542e-05 1.14365e-19 -9.20812e-05)
(-4.08851e-05 -0.000524817 -2.51308e-20 0.000140748 4.22723e-21 -9.98627e-05)
(-0.000101604 -0.000460629 -2.30344e-20 0.000206929 -7.07486e-21 -0.000105325)
(-0.000139948 -0.000391789 -1.56405e-19 0.000249361 -1.69326e-19 -0.000109414)
(-0.000155205 -0.00032572 -4.77594e-20 0.000267114 -1.77869e-20 -0.000111909)
(-0.000154215 -0.000267524 -4.54391e-19 0.000266924 -4.34703e-19 -0.00011271)
(-0.000142614 -0.00022068 -5.56185e-21 0.000255584 6.6306e-20 -0.00011297)
(-0.000123906 -0.000186435 -2.16714e-19 0.000235537 1.62295e-21 -0.000111631)
(-0.000104213 -0.00017135 1.43782e-19 0.000216052 8.50588e-20 -0.000111839)
(-8.68616e-05 -0.000184259 -3.17595e-19 0.000208558 -9.33582e-20 -0.000121696)
(-6.93154e-05 -0.000254608 8.99208e-19 0.000226985 2.14996e-19 -0.000157669)
(-2.46332e-05 -0.000521477 -1.50513e-18 0.000301591 -1.2388e-18 -0.000276958)
(0.000192068 -0.00135465 -3.00683e-18 0.0003765 -1.04552e-18 -0.000568568)
(0.000894649 -0.00333321 -6.29551e-18 0.000133244 2.51058e-18 -0.00102789)
(0.00284372 -0.00854483 1.36899e-18 -0.00101614 9.84017e-22 -0.00182758)
(0.00749632 -0.0214695 1.24145e-17 -0.00449734 1.43191e-17 -0.00299898)
(0.0218652 -0.0655491 -2.8253e-17 -0.0162365 -5.52794e-17 -0.00562871)
(0.0514283 -0.174448 1.89736e-18 -0.0427781 7.92674e-17 -0.00865022)
(0.132265 -0.546446 1.96574e-18 -0.116935 -3.2988e-17 -0.01533)
(0.264836 -1.40882 -0 -0.243858 -0 -0.0209779)
(0.342877 -2.49936 -9.59182e-18 -0.330278 2.09223e-16 -0.0125989)
(0.32038 -3.65948 -4.47787e-17 -0.325586 2.53371e-17 0.00520637)
(0.17633 -4.70307 -5.89153e-17 -0.195705 -2.46539e-16 0.0193753)
(-0.074957 -5.37372 -7.91119e-16 0.0514425 -1.56881e-15 0.0235144)
(-0.359678 -5.44562 2.86324e-16 0.342909 -5.33776e-15 0.0167688)
(-0.579879 -4.94883 -9.61976e-17 0.576808 3.97115e-15 0.00307055)
(-0.695507 -4.22731 -2.98087e-16 0.70806 5.23732e-15 -0.0125534)
(-0.722841 -3.54178 -2.07899e-15 0.747883 3.04001e-15 -0.0250421)
(-0.700946 -2.99036 5.42648e-15 0.730224 1.10787e-14 -0.0292774)
(-0.661371 -2.57288 -2.76029e-16 0.687056 -1.82598e-15 -0.0256855)
(-0.605423 -2.25414 5.52891e-15 0.626855 -2.91771e-15 -0.0214316)
(-0.573154 -2.02983 -1.83687e-16 0.586392 3.82162e-17 -0.0132376)
(-0.434107 -1.80903 2.41818e-15 0.466421 -8.71421e-16 -0.0323137)
(-0.694921 -1.9525 5.10455e-15 0.596196 7.49898e-15 0.0987255)
(0.000610203 -0.000267256 4.83817e-21 -0.000574951 1.07811e-20 -3.52523e-05)
(0.000634576 -0.000149024 8.68042e-23 -0.000604069 -8.29969e-20 -3.05072e-05)
(0.000627603 -7.41355e-06 -5.46156e-20 -0.000607461 -7.07312e-20 -2.01425e-05)
(0.000575309 0.000143652 2.07659e-20 -0.000565778 1.79178e-19 -9.53119e-06)
(0.000473033 0.000274941 1.48536e-19 -0.000473425 -1.35682e-19 3.92291e-07)
(0.000338173 0.000361903 -7.14795e-20 -0.000344099 -1.51007e-19 5.92608e-06)
(0.000205291 0.000397275 -7.79489e-20 -0.00021605 -2.90511e-19 1.0759e-05)
(8.27503e-05 0.000392139 -2.4929e-19 -9.34423e-05 4.51518e-20 1.0692e-05)
(-2.72524e-05 0.000351289 -8.10747e-20 2.24192e-05 2.12245e-19 4.83328e-06)
(-0.000104483 0.000284905 -6.10025e-20 0.00010797 6.64719e-21 -3.48641e-06)
(-0.000142109 0.000214282 -3.8089e-21 0.000153033 -1.26616e-19 -1.09241e-05)
(-0.000150702 0.000153775 -2.73129e-21 0.000166922 -5.0898e-20 -1.62197e-05)
(-0.000142677 0.000107294 4.01617e-20 0.000162208 1.03524e-19 -1.95315e-05)
(-0.000126327 7.46134e-05 -4.77823e-20 0.000147596 -1.87428e-20 -2.1269e-05)
(-0.000107532 5.3438e-05 -2.05925e-20 0.000129283 -7.05587e-20 -2.17513e-05)
(-8.98298e-05 4.02345e-05 -1.04227e-19 0.000111148 -1.13346e-20 -2.13184e-05)
(-7.42772e-05 3.23694e-05 -1.22897e-20 9.45816e-05 1.45642e-21 -2.03044e-05)
(-6.13391e-05 2.78402e-05 -6.17804e-22 8.03149e-05 -6.45332e-21 -1.89758e-05)
(-5.08033e-05 2.50621e-05 -1.24052e-20 6.82895e-05 6.53079e-21 -1.74862e-05)
(-4.23342e-05 2.31694e-05 1.73087e-20 5.83634e-05 -5.41244e-21 -1.60292e-05)
(-3.56166e-05 2.16478e-05 -1.35001e-19 5.03828e-05 6.78624e-20 -1.47662e-05)
(-3.07953e-05 2.04803e-05 -2.35536e-20 4.48047e-05 4.19729e-21 -1.40094e-05)
(-2.77937e-05 1.98048e-05 3.45348e-21 4.1923e-05 -1.33786e-20 -1.41293e-05)
(-2.57895e-05 2.00533e-05 1.17279e-19 4.09923e-05 -4.12841e-21 -1.52028e-05)
(-3.12321e-05 2.90321e-05 -1.40616e-19 5.29962e-05 1.27729e-20 -2.17641e-05)
(-0.000401648 0.000465232 -1.74842e-18 0.000724319 1.45469e-19 -0.000322671)
(-0.00230351 0.00321241 -1.27682e-20 0.00434663 1.5898e-19 -0.00204312)
(-0.0128551 0.0215491 6.41803e-21 0.0249341 3.35798e-19 -0.012079)
(-0.032167 0.0678099 -6.54601e-20 0.0629822 -8.8949e-22 -0.0308152)
(-0.0501937 0.136505 3.1687e-18 0.0967446 1.90411e-17 -0.0465509)
(-0.0623188 0.21329 1.09436e-18 0.11408 -2.1234e-17 -0.0517615)
(-0.0703784 0.282086 2.3897e-17 0.118352 -6.90902e-17 -0.0479733)
(-0.0784711 0.337204 2.73447e-15 0.119252 1.75854e-16 -0.0407811)
(-0.0889079 0.382005 2.54107e-15 0.12301 -3.57796e-16 -0.0341016)
(-0.102586 0.42085 -2.35202e-15 0.131755 -8.24815e-17 -0.0291685)
(-0.118225 0.459077 2.24304e-15 0.144572 2.85631e-16 -0.0263474)
(-0.13996 0.49771 -3.99874e-15 0.164045 -5.77135e-16 -0.024085)
(-0.158591 0.591602 -3.69438e-15 0.186989 -7.04546e-16 -0.0283983)
(-0.224901 0.814025 -3.64218e-15 0.215273 -2.10019e-16 0.00962839)
(0.000349777 -0.000252708 -1.28018e-21 -0.000367336 -1.99666e-21 1.75593e-05)
(0.000286174 -0.000314192 -3.45989e-20 -0.000308358 -6.87375e-20 2.21848e-05)
(0.000200786 -0.000361516 2.48175e-20 -0.000227592 4.41379e-20 2.68062e-05)
(0.000103026 -0.000383749 3.29863e-20 -0.000136333 5.44295e-20 3.33065e-05)
(4.53124e-06 -0.000381722 6.05545e-20 -4.33195e-05 8.60318e-20 3.87883e-05)
(-9.08348e-05 -0.000353857 -1.82005e-19 4.63994e-05 -2.89133e-19 4.44354e-05)
(-0.000173198 -0.000302854 1.25117e-19 0.00012256 2.20794e-19 5.06381e-05)
(-0.000235625 -0.000236986 1.59831e-19 0.000179751 1.46719e-19 5.58744e-05)
(-0.000277129 -0.000162015 -9.27498e-21 0.000216558 1.78576e-20 6.05717e-05)
(-0.000297412 -8.59632e-05 1.05849e-19 0.000232566 1.68288e-19 6.48463e-05)
(-0.000299031 -1.4623e-05 -2.10196e-19 0.000230984 -1.7583e-20 6.80476e-05)
(-0.000286154 4.87397e-05 2.94174e-19 0.000215631 3.10979e-19 7.05235e-05)
(-0.000262698 0.000102128 1.38244e-19 0.000190495 5.99572e-20 7.22025e-05)
(-0.000234653 0.000145037 6.46457e-20 0.000162502 -6.11023e-20 7.21514e-05)
(-0.000206253 0.000179201 1.97677e-19 0.000135841 1.90573e-19 7.04121e-05)
(-0.000180463 0.000206151 -4.97415e-19 0.000112946 -4.9909e-19 6.75172e-05)
(-0.000150759 0.00021621 1.17576e-19 9.04578e-05 1.76618e-19 6.03014e-05)
(-0.000119758 0.000209456 9.2788e-19 6.97073e-05 2.68548e-19 5.00504e-05)
(-7.48048e-05 0.000156595 2.02833e-19 4.29337e-05 1.4773e-19 3.18711e-05)
(-6.21045e-05 0.000152017 -5.97775e-20 3.61033e-05 -4.00165e-21 2.60012e-05)
(-0.000170242 0.000479423 2.12609e-19 0.00010277 -4.74519e-19 6.74723e-05)
(-0.00133565 0.00432073 3.78782e-19 0.000851844 3.15443e-18 0.000483808)
(-2.87494e-05 0.000116094 2.05181e-19 1.88889e-05 -4.65755e-20 9.86047e-06)
(-7.21141e-06 6.88693e-05 -1.31587e-19 2.78168e-06 -5.54349e-20 4.42974e-06)
(0.000536185 -0.000329901 4.62833e-20 -0.000536249 9.2326e-20 6.41453e-08)
(0.00401813 -0.0130564 -1.427e-17 -0.00367633 4.17331e-18 -0.000341802)
(0.0111167 -0.064606 6.89674e-18 -0.00992761 2.36066e-18 -0.00118904)
(0.0197329 -0.213596 -9.51089e-18 -0.0171801 -6.50379e-19 -0.00255273)
(0.0195085 -0.56196 -2.80926e-16 -0.0155258 2.66335e-16 -0.00398265)
(-0.0153691 -1.1959 -6.19724e-16 0.0196691 2.05224e-17 -0.00429999)
(-0.117639 -2.04454 2.32668e-15 0.119711 -6.56325e-16 -0.00207163)
(-0.285066 -2.80564 2.2369e-15 0.282117 1.07569e-15 0.00294833)
(-0.459021 -3.18218 -4.43709e-17 0.451014 2.81092e-15 0.00800705)
(-0.569968 -3.13879 5.09279e-15 0.561607 -3.43977e-15 0.00836121)
(-0.602329 -2.86206 4.10428e-15 0.597343 -2.16621e-15 0.00498542)
(-0.563828 -2.52093 -7.62478e-15 0.563767 -2.24104e-15 6.12852e-05)
(-0.521003 -2.24245 -1.89897e-17 0.51891 -1.1128e-15 0.00209316)
(-0.317808 -1.9163 5.24527e-15 0.330615 -6.65118e-16 -0.0128069)
(-0.630619 -2.11618 -9.69157e-15 0.626847 3.70465e-15 0.00377232)
(0.000398758 -0.000176889 -8.53093e-21 -0.000414143 -1.69287e-20 1.53852e-05)
(0.000427968 -9.71786e-05 -5.50522e-21 -0.000439368 7.38637e-21 1.13998e-05)
(0.000439561 -9.75796e-07 7.87582e-20 -0.000448017 8.56905e-20 8.45522e-06)
(0.000422062 9.91672e-05 -5.28456e-20 -0.000426564 -6.55633e-21 4.50153e-06)
(0.000370079 0.000193096 7.39806e-21 -0.000371561 2.68114e-20 1.48155e-06)
(0.000288465 0.000263196 1.27327e-20 -0.00028797 1.61738e-19 -4.95486e-07)
(0.000192005 0.000302418 1.34792e-20 -0.00019271 8.26894e-20 7.05642e-07)
(9.46224e-05 0.00031279 3.25605e-19 -9.57512e-05 1.50497e-19 1.1288e-06)
(7.88004e-06 0.000291617 7.19773e-20 -8.77523e-06 -5.66615e-20 8.95193e-07)
(-5.6524e-05 0.000246331 1.43171e-19 5.48174e-05 1.55564e-20 1.70657e-06)
(-9.42699e-05 0.000191415 -1.59639e-19 9.08152e-05 -5.27142e-20 3.45469e-06)
(-0.000109815 0.000138668 -9.33039e-20 0.000104314 1.32496e-19 5.50091e-06)
(-0.0001103 9.37214e-05 1.46683e-19 0.000102732 -6.70198e-20 7.56729e-06)
(-0.000101624 5.85113e-05 7.17329e-20 9.21082e-05 -4.59062e-22 9.51588e-06)
(-8.89556e-05 3.30457e-05 -8.58756e-20 7.7992e-05 6.0003e-20 1.09636e-05)
(-7.56332e-05 1.53183e-05 -4.73252e-20 6.35532e-05 9.10461e-20 1.20799e-05)
(-6.3433e-05 3.49438e-06 1.4095e-19 5.06399e-05 -6.79293e-20 1.27931e-05)
(-5.30709e-05 -4.28972e-06 1.1163e-19 3.98507e-05 -2.14167e-20 1.32202e-05)
(-4.48102e-05 -9.50504e-06 4.10535e-20 3.14687e-05 -5.15974e-21 1.33416e-05)
(-3.82282e-05 -1.33725e-05 -1.42258e-20 2.48571e-05 3.90719e-20 1.33711e-05)
(-3.29386e-05 -1.65636e-05 2.11952e-19 1.96457e-05 3.7811e-21 1.32929e-05)
(-2.83164e-05 -1.97506e-05 5.35432e-21 1.50339e-05 -2.46075e-20 1.32825e-05)
(-2.35479e-05 -2.33005e-05 -5.22953e-22 1.01596e-05 -1.40904e-21 1.33883e-05)
(-1.7126e-05 -2.67155e-05 -2.91321e-21 3.07503e-06 -1.19891e-20 1.4051e-05)
(-9.03801e-06 -2.81662e-05 -1.9285e-22 -6.1675e-06 5.05166e-21 1.52055e-05)
(-1.10046e-06 -2.68119e-05 3.23582e-19 -1.5105e-05 -1.98587e-20 1.62055e-05)
(5.44478e-06 -2.36352e-05 -3.72565e-21 -2.25116e-05 2.51012e-22 1.70668e-05)
(7.81931e-06 -1.50872e-05 -2.55283e-20 -2.15066e-05 -6.63359e-23 1.36873e-05)
(0.000146286 -0.000158758 -4.79443e-21 -0.00034624 5.55394e-22 0.000199954)
(0.0007814 -0.000327152 -3.8708e-18 -0.00172017 -1.31159e-19 0.000938766)
(0.00199716 0.00101116 2.44454e-17 -0.00426457 2.48685e-18 0.00226741)
(0.0027803 0.00722773 -2.05461e-18 -0.00609192 -2.70283e-20 0.00331162)
(0.00174237 0.0214778 -3.37077e-16 -0.00504098 2.68654e-17 0.0032986)
(-0.00184097 0.0449473 2.4101e-19 -0.000476847 3.86952e-17 0.00231782)
(-0.00800891 0.0763866 6.53519e-18 0.0069717 -6.1162e-17 0.00103721)
(-0.015175 0.112693 2.0795e-17 0.0152744 4.90503e-17 -9.93858e-05)
(-0.0241207 0.150024 -1.07035e-16 0.0245337 2.4846e-16 -0.000413016)
(-0.0149043 0.177521 2.44796e-15 0.0164644 7.03768e-16 -0.00156016)
(-0.046241 0.290877 4.96015e-15 0.0376985 1.7042e-15 0.00854249)
(0.00029914 -0.000207809 -7.01019e-21 -0.0002937 -1.00227e-20 -5.44014e-06)
(0.00025943 -0.00025657 -1.27762e-20 -0.000253166 -2.19622e-20 -6.26392e-06)
(0.00020425 -0.000300232 2.70631e-20 -0.000195708 3.35564e-20 -8.54195e-06)
(0.000140486 -0.000330818 2.79701e-20 -0.000129733 3.68019e-20 -1.07522e-05)
(7.29343e-05 -0.00034472 3.83022e-21 -5.97041e-05 -4.12982e-22 -1.32302e-05)
(4.00551e-06 -0.000341669 -7.3764e-21 1.21723e-05 2.30165e-20 -1.61778e-05)
(-5.92912e-05 -0.000322741 2.62588e-19 7.85618e-05 2.60948e-19 -1.92706e-05)
(-0.000112029 -0.000290492 -2.47961e-19 0.000134465 -3.07861e-19 -2.24365e-05)
(-0.000152404 -0.000249003 5.56555e-20 0.000178289 1.46277e-20 -2.58844e-05)
(-0.000178707 -0.000203242 3.20759e-19 0.000207772 2.36231e-19 -2.90654e-05)
(-0.000191779 -0.000157082 2.60342e-19 0.000223933 2.54216e-19 -3.21537e-05)
(-0.00019363 -0.000113778 2.7833e-19 0.000228617 8.7674e-20 -3.49865e-05)
(-0.000186542 -7.56004e-05 -3.07048e-19 0.000224065 -2.28653e-19 -3.75233e-05)
(-0.000172723 -4.3403e-05 -2.00058e-19 0.000212144 -1.88829e-19 -3.94209e-05)
(-0.000154505 -1.76864e-05 1.91206e-20 0.000195041 -6.19423e-20 -4.05361e-05)
(-0.000133323 1.62681e-06 -4.68282e-19 0.000174178 2.72592e-20 -4.08553e-05)
(-0.000110223 1.7501e-05 -1.32272e-19 0.000149485 -1.62687e-19 -3.9262e-05)
(-8.6912e-05 3.00754e-05 -7.50106e-19 0.000123275 -5.73851e-19 -3.63626e-05)
(-6.47509e-05 4.04747e-05 7.73013e-20 9.63817e-05 -1.06072e-19 -3.16308e-05)
(-4.40632e-05 4.69371e-05 3.18576e-20 6.85757e-05 -7.33132e-20 -2.45125e-05)
(-3.02721e-05 5.33204e-05 -2.98335e-19 4.78711e-05 -8.21083e-22 -1.7599e-05)
(-2.14429e-05 5.74179e-05 3.95311e-20 3.28026e-05 8.1002e-21 -1.13596e-05)
(-1.93797e-05 7.47643e-05 -1.97721e-19 2.79822e-05 -4.07062e-20 -8.6025e-06)
(-1.47027e-05 8.94718e-05 -6.53635e-20 2.105e-05 7.11731e-20 -6.34727e-06)
(-5.48965e-05 0.000755841 1.29437e-19 9.38392e-05 8.62652e-21 -3.89426e-05)
(4.81207e-05 0.00397291 2.6568e-18 0.000128034 1.39997e-18 -0.000176155)
(0.000834036 0.00960468 -6.31958e-19 -0.000441734 2.67539e-19 -0.000392302)
(0.0029523 0.0182586 1.99987e-18 -0.0022407 1.24239e-19 -0.000711594)
(0.000450951 0.00155051 3.49313e-18 -0.000382833 1.44447e-19 -6.81179e-05)
(0.00405787 0.00276562 -2.6407e-18 -0.00361315 2.92976e-17 -0.00044472)
(0.00973925 -0.0436328 -1.84104e-16 -0.00871846 -1.69008e-16 -0.00102079)
(0.00348719 -0.254788 8.19037e-16 -0.0019269 -7.65323e-16 -0.00156028)
(-0.0493613 -0.747314 1.15791e-15 0.050757 -1.10461e-16 -0.00139573)
(-0.171781 -1.43551 -3.57686e-16 0.171583 -4.19394e-15 0.000198364)
(-0.326907 -2.02471 -3.99431e-15 0.323734 -1.0713e-15 0.00317271)
(-0.430045 -2.30542 4.69635e-16 0.42685 2.38331e-15 0.00319516)
(-0.475613 -2.35737 -7.46833e-15 0.469763 1.08194e-15 0.00585018)
(-0.317385 -2.17999 -5.46353e-15 0.324366 9.89899e-16 -0.00698087)
(-0.517543 -2.32058 5.67629e-15 0.507869 -4.75687e-15 0.00967388)
(0.000327791 -0.000149046 -3.06469e-21 -0.000324785 1.70214e-21 -3.00596e-06)
(0.000343834 -8.81197e-05 1.01708e-20 -0.000341506 5.95437e-20 -2.32783e-06)
(0.000345866 -1.46144e-05 3.6838e-20 -0.000345811 6.28118e-20 -5.44043e-08)
(0.000329879 6.13578e-05 5.55911e-20 -0.000330291 -2.92892e-20 4.11791e-07)
(0.000292143 0.000132951 -1.08232e-19 -0.000292497 -7.01118e-20 3.53745e-07)
(0.000235799 0.000190098 -2.1751e-20 -0.000235576 -1.04555e-19 -2.22427e-07)
(0.000168075 0.000227608 -1.62206e-19 -0.000168253 -1.0923e-19 1.77898e-07)
(9.55404e-05 0.000242305 -1.76783e-19 -9.62792e-05 9.44188e-21 7.38733e-07)
(2.7741e-05 0.000233463 -2.68044e-20 -2.86764e-05 -3.35589e-20 9.35461e-07)
(-2.68406e-05 0.000206698 7.03045e-20 2.60226e-05 -4.50451e-20 8.18e-07)
(-6.42169e-05 0.000170638 4.85981e-20 6.39485e-05 1.11183e-19 2.6841e-07)
(-8.53582e-05 0.00013312 1.30136e-19 8.59993e-05 -5.23745e-20 -6.41102e-07)
(-9.3832e-05 9.89664e-05 -1.08357e-19 9.55273e-05 -7.70891e-20 -1.69535e-06)
(-9.35638e-05 7.05608e-05 -4.24494e-21 9.63433e-05 3.01815e-20 -2.77946e-06)
(-8.81388e-05 4.87626e-05 1.09613e-19 9.20262e-05 -2.80907e-20 -3.88734e-06)
(-8.04158e-05 3.27679e-05 2.00734e-19 8.52532e-05 -2.31975e-20 -4.83746e-06)
(-7.22076e-05 2.148e-05 -1.4115e-19 7.78399e-05 -1.41177e-20 -5.63232e-06)
(-6.44954e-05 1.36333e-05 -2.84625e-20 7.07392e-05 -4.0212e-20 -6.24374e-06)
(-5.77915e-05 8.07236e-06 -1.24265e-20 6.45026e-05 7.37767e-21 -6.71113e-06)
(-5.20931e-05 3.7738e-06 2.02146e-19 5.90822e-05 -6.48284e-20 -6.98904e-06)
(-4.72627e-05 1.18003e-07 2.77028e-20 5.44349e-05 -3.34654e-20 -7.17215e-06)
(-4.29601e-05 -3.4198e-06 -1.93566e-19 5.02326e-05 4.53869e-20 -7.27248e-06)
(-3.86727e-05 -7.12934e-06 -5.19171e-21 4.60205e-05 1.68034e-20 -7.34781e-06)
(-3.36536e-05 -1.06829e-05 -1.86155e-21 4.10209e-05 -9.13049e-21 -7.36735e-06)
(-2.81344e-05 -1.28294e-05 7.8948e-22 3.57068e-05 -6.9896e-23 -7.57238e-06)
(-2.33303e-05 -1.33195e-05 -1.42405e-19 3.14744e-05 6.48302e-22 -8.14416e-06)
(-1.95488e-05 -1.29294e-05 -3.302e-22 2.83272e-05 3.25838e-23 -8.77838e-06)
(-1.68201e-05 -1.23731e-05 3.1078e-20 2.62525e-05 -1.48485e-21 -9.43245e-06)
(-1.32239e-05 -1.0695e-05 -1.36122e-21 2.21919e-05 -1.96225e-23 -8.96798e-06)
(-1.30072e-05 -1.17501e-05 1.02107e-22 2.33962e-05 -6.69478e-21 -1.0389e-05)
(-4.88733e-06 -5.21308e-06 -5.88974e-20 9.47226e-06 2.21579e-21 -4.58494e-06)
(-3.10394e-06 -4.18626e-06 -1.37258e-21 6.76134e-06 -8.479e-23 -3.6574e-06)
(-3.14882e-05 -6.09709e-05 4.81011e-20 9.49399e-05 -1.3203e-19 -6.34517e-05)
(4.20359e-05 4.5505e-05 2.3835e-17 8.16938e-05 3.59826e-18 -0.00012373)
(0.000376574 0.00110051 3.98571e-19 -0.000313616 3.95331e-20 -6.29582e-05)
(0.00113562 0.00488962 -2.32131e-16 -0.00133156 -2.73729e-17 0.000195941)
(0.00173451 0.0146428 1.49719e-15 -0.00246857 2.14282e-16 0.000734062)
(0.00690938 0.0338845 3.07465e-17 -0.00756935 -1.27126e-16 0.000659969)
(-0.00476361 0.119113 2.39814e-16 -0.000660094 -1.33327e-15 0.00542371)
(0.000225419 -0.00015873 -7.0114e-21 -0.000227034 -7.93974e-21 1.61462e-06)
(0.000193151 -0.000195092 -1.45139e-20 -0.000195759 -1.99926e-20 2.60845e-06)
(0.000150022 -0.000227141 4.93308e-20 -0.000153 6.21829e-20 2.97819e-06)
(9.96045e-05 -0.000248944 -2.05062e-19 -0.000103516 -2.47774e-19 3.91115e-06)
(4.56012e-05 -0.000258282 5.07464e-20 -5.06229e-05 5.86048e-20 5.02167e-06)
(-1.00013e-05 -0.000254378 1.08453e-19 3.94222e-06 1.0931e-19 6.05912e-06)
(-6.22159e-05 -0.000237317 -9.65222e-20 5.47705e-05 -1.35763e-19 7.44536e-06)
(-0.000107195 -0.000208829 -4.65567e-20 9.82228e-05 5.1215e-21 8.97242e-06)
(-0.000142609 -0.000171527 -3.68269e-19 0.000132094 -3.31696e-19 1.05147e-05)
(-0.000166816 -0.000129129 -6.37877e-20 0.000154521 -1.32186e-19 1.22954e-05)
(-0.000179632 -8.49129e-05 8.83273e-21 0.000165542 -2.95552e-20 1.409e-05)
(-0.000181901 -4.18779e-05 -1.90268e-19 0.000165989 -2.23444e-19 1.59123e-05)
(-0.000175139 -2.38227e-06 9.084e-20 0.000157364 1.01844e-19 1.77758e-05)
(-0.000161237 3.19936e-05 -3.6306e-19 0.000141622 -1.84031e-19 1.96157e-05)
(-0.000142164 6.02451e-05 7.35273e-20 0.000120867 4.09139e-20 2.12966e-05)
(-0.000120043 8.23867e-05 3.49707e-19 9.71973e-05 2.81353e-19 2.28452e-05)
(-9.69128e-05 9.7818e-05 -4.71798e-19 7.34024e-05 -1.32305e-19 2.35104e-05)
(-7.43556e-05 0.000106186 -8.66204e-20 5.14771e-05 3.84424e-19 2.28784e-05)
(-5.27187e-05 0.000108045 -2.91401e-20 3.15079e-05 -4.87737e-20 2.12108e-05)
(-3.28042e-05 0.000104012 -3.49057e-19 1.40135e-05 -5.38427e-20 1.87907e-05)
(-1.52568e-05 9.21561e-05 3.45439e-19 5.52155e-08 2.09157e-19 1.52016e-05)
(-2.77315e-06 7.57301e-05 9.98585e-21 -8.28e-06 -1.48211e-20 1.10531e-05)
(3.41355e-06 5.25806e-05 1.72982e-19 -9.80061e-06 4.8405e-20 6.38705e-06)
(7.20043e-06 5.15688e-05 1.22124e-19 -1.21749e-05 4.07694e-20 4.97445e-06)
(1.07137e-05 5.3447e-05 -1.19211e-20 -1.48045e-05 -1.16575e-21 4.09073e-06)
(1.36075e-05 5.48431e-05 1.31378e-21 -1.69299e-05 -5.30765e-21 3.32242e-06)
(1.5263e-05 5.61553e-05 1.32525e-20 -1.78468e-05 -3.58294e-21 2.58381e-06)
(1.59022e-05 5.83235e-05 -6.27677e-21 -1.77987e-05 -9.23292e-21 1.89648e-06)
(9.49437e-05 0.00035348 -4.92105e-19 -0.000102293 -3.25615e-20 7.34892e-06)
(0.00136909 0.00496157 6.576e-19 -0.00142542 3.4404e-20 5.63286e-05)
(0.00499187 0.0162998 -4.33747e-18 -0.00506813 2.15462e-18 7.62556e-05)
(0.00220304 0.00559282 -3.54007e-17 -0.00220469 -2.52493e-17 1.64691e-06)
(0.0112624 0.0117246 -2.33291e-17 -0.0111815 -7.18027e-17 -8.08404e-05)
(0.0179711 -0.0748291 -2.12606e-15 -0.0175272 2.05487e-16 -0.000443949)
(-0.0200235 -0.444316 3.83518e-16 0.0207805 1.24369e-15 -0.000756978)
(-0.134104 -1.11409 -5.76879e-19 0.134788 9.01721e-20 -0.000684009)
(-0.283819 -1.78894 -2.14371e-16 0.280534 2.64274e-15 0.00328487)
(-0.268336 -2.14834 8.6244e-17 0.276451 -1.07632e-16 -0.00811491)
(-0.425249 -2.40872 -9.43836e-15 0.404286 2.20019e-15 0.0209625)
(0.000249442 -0.000115668 1.4482e-20 -0.000251231 2.86643e-21 1.78892e-06)
(0.000264336 -7.04943e-05 -4.22837e-20 -0.000265216 -5.38947e-20 8.80461e-07)
(0.000269129 -1.61356e-05 -3.44509e-20 -0.000270277 4.97224e-20 1.14835e-06)
(0.000260048 4.09322e-05 1.20185e-19 -0.000260459 3.68256e-20 4.10865e-07)
(0.000234796 9.58123e-05 -3.09263e-20 -0.00023467 -1.87568e-19 -1.26905e-07)
(0.000195064 0.000141627 -7.91263e-20 -0.000194651 9.43257e-20 -4.12595e-07)
(0.000145433 0.000174497 1.82538e-19 -0.000145336 1.30788e-19 -9.69846e-08)
(9.07757e-05 0.000191028 -7.55739e-20 -9.08654e-05 -1.29714e-19 8.97228e-08)
(3.78576e-05 0.000190031 -1.37928e-19 -3.80256e-05 -4.69174e-20 1.67978e-07)
(-7.17227e-06 0.000174674 -1.04395e-19 6.92159e-06 4.35453e-20 2.50678e-07)
(-4.05725e-05 0.000150108 1.31324e-19 4.02526e-05 -8.97597e-21 3.19899e-07)
(-6.18136e-05 0.000121845 -8.94829e-20 6.13757e-05 -4.18837e-20 4.379e-07)
(-7.26072e-05 9.40236e-05 -8.87907e-20 7.19385e-05 6.1172e-20 6.68759e-07)
(-7.54416e-05 6.91622e-05 8.45053e-20 7.44472e-05 2.45175e-20 9.94372e-07)
(-7.28912e-05 4.86268e-05 -1.41188e-19 7.15285e-05 3.01973e-20 1.36274e-06)
(-6.73506e-05 3.25185e-05 -1.76916e-20 6.55694e-05 -7.27072e-20 1.78117e-06)
(-6.05537e-05 2.03581e-05 2.79791e-20 5.83357e-05 3.5555e-20 2.21799e-06)
(-5.36369e-05 1.13479e-05 -1.43854e-19 5.09998e-05 1.34646e-20 2.63706e-06)
(-4.7255e-05 4.66651e-06 5.54845e-20 4.42561e-05 -3.76042e-21 2.99894e-06)
(-4.16178e-05 -4.88726e-07 -2.19992e-19 3.83064e-05 2.40523e-20 3.31145e-06)
(-3.66939e-05 -4.71747e-06 -1.96268e-20 3.31456e-05 5.55053e-21 3.54828e-06)
(-3.22179e-05 -8.49229e-06 1.74827e-19 2.84883e-05 5.81535e-22 3.72966e-06)
(-2.77542e-05 -1.2062e-05 1.6068e-19 2.38988e-05 -2.98983e-20 3.85533e-06)
(-2.26446e-05 -1.52117e-05 -1.40511e-19 1.86144e-05 1.15071e-20 4.03018e-06)
(-1.69027e-05 -1.70824e-05 -1.52431e-21 1.26604e-05 5.48367e-22 4.24235e-06)
(-1.14218e-05 -1.74053e-05 -1.32469e-19 7.01015e-06 1.69706e-20 4.4116e-06)
(-6.6527e-06 -1.68093e-05 -8.30881e-22 1.9376e-06 3.7828e-23 4.7151e-06)
(-2.56087e-06 -1.57028e-05 1.42957e-23 -2.58377e-06 7.48129e-22 5.14464e-06)
(8.9101e-07 -1.43927e-05 3.2632e-22 -6.49781e-06 -4.51891e-23 5.6068e-06)
(3.51306e-06 -1.24448e-05 4.68344e-20 -9.19022e-06 2.89438e-21 5.67717e-06)
(5.80701e-06 -1.22658e-05 -3.19921e-23 -1.19035e-05 -6.62139e-21 6.09646e-06)
(3.77804e-06 -6.12134e-06 -1.31329e-21 -6.78651e-06 -2.06765e-22 3.00847e-06)
(2.47901e-05 -3.46856e-05 -1.15062e-18 -4.00241e-05 -1.48473e-19 1.5234e-05)
(0.000129942 -0.000164791 -5.60597e-18 -0.000188149 -4.19698e-19 5.82074e-05)
(0.000104327 -0.000118665 2.17243e-20 -0.000134968 6.26737e-21 3.06405e-05)
(8.60764e-05 -7.51611e-05 -6.30182e-18 -9.8095e-05 -9.2799e-19 1.20186e-05)
(0.000298535 -0.000122445 8.64959e-19 -0.000316907 -6.23115e-18 1.83725e-05)
(0.00110735 0.000232108 1.41495e-18 -0.00106879 2.68115e-19 -3.85577e-05)
(0.00416025 0.0218646 -5.73855e-16 -0.00555176 4.43467e-17 0.00139151)
(0.00018334 -0.000129787 1.63206e-20 -0.000182797 1.51763e-20 -5.42934e-07)
(0.000159498 -0.00015899 -1.16255e-20 -0.000159066 -1.0232e-20 -4.31175e-07)
(0.000127136 -0.000185634 -6.25588e-22 -0.0001263 -1.49019e-21 -8.35595e-07)
(8.90892e-05 -0.000205367 -1.56543e-21 -8.79913e-05 -5.22369e-22 -1.0979e-06)
(4.79191e-05 -0.000216196 1.43266e-19 -4.65764e-05 1.42826e-19 -1.34261e-06)
(4.53957e-06 -0.000217589 -9.28028e-20 -2.68228e-06 -1.03019e-19 -1.85729e-06)
(-3.7331e-05 -0.000209212 -4.69393e-21 3.96771e-05 1.76755e-20 -2.34607e-06)
(-7.48147e-05 -0.000191896 3.10665e-19 7.77496e-05 2.80484e-19 -2.93496e-06)
(-0.000106132 -0.000167214 -5.83204e-20 0.000109847 7.36597e-21 -3.71461e-06)