/*--------------------------------*- C++ -*----------------------------------*\
| =========                 |                                                 |
| \\      /  F ield         | OpenFOAM: The Open Source CFD Toolbox           |
|  \\    /   O peration     | Version:  2312                                  |
|   \\  /    A nd           | Website:  www.openfoam.com                      |
|    \\/     M anipulation  |                                                 |
\*---------------------------------------------------------------------------*/
FoamFile
{
    version     2.0;
    format      ascii;
    arch        "LSB;label=32;scalar=64";
    class       volScalarField;
    location    "100";
    object      turbulenceProperties:epsilon;
}
// * * * * * * * * * * * * * * * * * * * * * * * * * * * * * * * * * * * * * //

dimensions      [0 2 -3 0 0 0 0];

internalField   nonuniform List<scalar> 
10720
(
0.149556
0.200611
0.274207
0.386949
0.535365
0.742785
1.02886
1.40254
1.89204
2.52458
3.33405
4.39116
5.81232
7.73863
10.4164
14.2774
19.9364
28.7367
42.1355
65.8503
101.104
180.364
291.222
638.902
1007.59
1083.57
1030.2
972.812
926.82
878.198
817.871
743.822
659.415
566.52
464.437
357.922
236.035
139.238
13.7545
0.109152
0.080322
0.0531438
0.0339278
0.0197468
0.010792
0.00681555
0.0083458
0.0146553
0.0292212
0.0585835
0.112456
0.203424
0.345773
0.555368
0.858631
1.30408
1.98394
3.07333
4.88618
8.09105
13.8371
25.2731
47.124
97.4655
198.738
456.022
850.432
1117.26
1217.46
1239.22
1233.95
1213.91
1181.46
1137.78
1084.87
1011.93
929.962
692.713
0.0062672
0.00625726
0.00614331
0.00583365
0.00536255
0.00482382
0.00421147
0.00356491
0.00296623
0.00242067
0.00195079
0.00158518
0.00129041
0.00117512
0.00138007
0.00220946
0.00497197
0.0130218
0.0353303
0.112164
0.366272
1.45334
4.86574
17.9326
49.2233
85.3389
115.74
133.662
134.388
117.706
90.7828
65.4923
46.6784
34.1674
26.1091
20.7255
17.3989
14.2971
17.7471
0.00611413
0.00589958
0.00556081
0.00507337
0.00441692
0.00367176
0.0030204
0.00240352
0.00182906
0.00134966
0.000979547
0.000702117
0.000496234
0.000345266
0.000237335
0.000162153
0.000109624
7.32606e-05
4.7193e-05
2.80717e-05
1.36886e-05
4.41574e-06
5.86929e-07
2.77499e-08
4.10982e-05
0.00205196
0.0142994
0.0910577
0.249485
0.429527
0.608046
0.784747
0.964252
1.15137
1.34798
1.56675
1.81899
2.44021
4.36605
0.00289447
0.00282316
0.00267535
0.00246575
0.00225143
0.0020234
0.00179948
0.00160495
0.00144263
0.00131818
0.00122627
0.00116255
0.0011193
0.00110192
0.00111059
0.00114115
0.0010423
0.000805629
8.94054e-05
2.21606e-05
0.00336449
0.0298877
0.000100089
5.56105e-05
0.000411463
0.0457795
0.393725
1.81463
5.96715
14.6276
26.8164
36.7321
39.0863
34.4125
27.1791
20.4859
15.8653
11.3631
14.4432
0.00295131
0.00296186
0.00295059
0.00284189
0.00261442
0.00227756
0.00191913
0.00159738
0.0012725
0.000954401
0.000677397
0.000461139
0.000304064
0.000195533
0.00012538
8.14971e-05
5.48718e-05
3.8889e-05
2.95014e-05
2.39613e-05
2.07906e-05
1.92424e-05
1.8924e-05
1.9479e-05
2.0406e-05
2.09277e-05
2.13295e-05
9.11648e-06
0.000416124
0.00153499
0.00278613
0.00518633
0.014822
0.0397872
0.0851629
0.149917
0.229191
0.279598
0.646045
0.00195494
0.00196191
0.00194249
0.00190786
0.00184356
0.00175028
0.00163747
0.00150312
0.00135663
0.00120353
0.00104973
0.000902024
0.000764582
0.000636255
0.000519251
0.000412576
0.000311272
0.000224735
0.000153083
8.74286e-05
4.65689e-05
2.21805e-07
4.29208e-07
1.71084e-07
0.00351424
0.0178594
0.0390626
0.0609014
0.00337858
0.00318011
0.0793164
1.02311
4.50289
10.6079
15.9674
17.4677
16.2624
12.6403
14.1106
0.00191972
0.0018687
0.00178897
0.00168352
0.00154036
0.00136969
0.0011964
0.00101427
0.000825667
0.000648107
0.000495721
0.000373853
0.000279859
0.000208949
0.000156957
0.0001191
9.18654e-05
7.2252e-05
5.82362e-05
4.7931e-05
4.02868e-05
3.43315e-05
2.93153e-05
2.43169e-05
1.95775e-05
1.60852e-05
1.36177e-05
1.23054e-05
8.7723e-06
1.13335e-05
3.15495e-07
5.59824e-07
2.40109e-05
1.29501e-05
0.000173676
0.00153132
0.00728305
0.0248711
0.16806
0.00114079
0.00113306
0.00111321
0.0010796
0.00103118
0.000967857
0.000893632
0.000811226
0.000724699
0.000639644
0.000559385
0.000486929
0.000424
0.000371345
0.000328582
0.000296117
0.000270992
0.000246448
0.00021738
0.000182574
0.000131572
7.65973e-05
3.92792e-06
7.50806e-08
1.08125e-08
2.41963e-16
0
0
0.00110559
0.0163045
0.0503793
0.0133081
0.0149945
0.102097
1.51111
5.68017
10.5911
12.0767
13.8763
0.00113646
0.00112224
0.00109125
0.00103743
0.000960536
0.000867074
0.000770793
0.000668453
0.00056099
0.000456504
0.000360939
0.000278386
0.000210037
0.000155338
0.000113238
8.1861e-05
5.91325e-05
4.30445e-05
3.1906e-05
2.4236e-05
1.89816e-05
1.53198e-05
1.26502e-05
1.03737e-05
8.24167e-06
6.46115e-06
5.25779e-06
4.58262e-06
4.38447e-06
3.94269e-06
4.88918e-06
2.49736e-10
2.073e-05
8.44992e-05
5.05692e-05
2.92168e-05
6.51223e-05
0.00029858
0.016788
0.000752565
0.000756637
0.000754572
0.000746986
0.000731374
0.000707263
0.000675873
0.000637026
0.000592128
0.000543119
0.000491223
0.000438284
0.000385961
0.000335478
0.00028794
0.000244354
0.000203547
0.000163556
0.000127275
9.7521e-05
7.38358e-05
5.78557e-05
3.77386e-05
1.64519e-05
3.66564e-06
6.66649e-14
7.84519e-09
1.9794e-09
1.34774e-12
0
0
0.00231019
0.0185502
0.0106091
0.0180513
0.173283
2.54475
7.75144
12.3526
0.000740836
0.000724414
0.000699964
0.00066376
0.000617545
0.000564627
0.000509494
0.000449548
0.000385961
0.000323082
0.000264053
0.000211503
0.000166685
0.000129677
0.000100107
7.71778e-05
5.979e-05
4.68065e-05
3.72186e-05
3.01286e-05
2.48236e-05
2.07047e-05
1.72923e-05
1.41196e-05
1.10635e-05
8.44269e-06
6.42843e-06
4.94976e-06
3.86145e-06
3.05455e-06
2.41945e-06
1.83367e-06
1.11848e-06
2.27214e-07
3.76036e-10
1.41716e-06
8.1771e-06
6.27269e-05
0.00119428
0.000494698
0.000498311
0.000498508
0.000495013
0.000486811
0.000473157
0.00045448
0.000430733
0.000402516
0.000371026
0.000337267
0.000302504
0.000268078
0.000234967
0.000204143
0.000176197
0.000151723
0.0001314
0.000113762
9.71992e-05
8.14015e-05
6.73722e-05
5.67122e-05
4.46829e-05
3.24729e-05
1.80153e-05
6.97559e-06
1.44005e-06
6.97789e-10
3.46934e-09
2.46842e-12
0
0
0.00113556
1.07088e-05
0.0147829
0.0694399
2.45411
8.68496
0.000486279
0.000475534
0.000460352
0.00043744
0.000409322
0.000378252
0.000345158
0.000308837
0.00027041
0.000231898
0.000194816
0.000160605
0.000130183
0.000103905
8.18896e-05
6.39896e-05
4.97853e-05
3.87509e-05
3.03352e-05
2.39738e-05
1.91736e-05
1.54957e-05
1.25646e-05
1.00303e-05
7.73505e-06
5.80076e-06
4.32438e-06
3.26075e-06
2.50314e-06
1.97692e-06
1.64117e-06
1.44737e-06
1.31012e-06
9.84062e-07
4.23617e-07
1.17521e-07
9.50607e-10
2.30951e-12
3.50768e-05
0.000336747
0.00034114
0.000343643
0.00034408
0.000341979
0.000336661
0.00032834
0.000316734
0.000301969
0.000284597
0.000264893
0.000243514
0.00022115
0.00019836
0.000175787
0.000153939
0.000133332
0.000113648
9.47174e-05
7.75324e-05
6.288e-05
5.09808e-05
4.19802e-05
3.55037e-05
2.97405e-05
2.46762e-05
1.83645e-05
1.22835e-05
6.14376e-06
2.35531e-06
1.78439e-09
1.19493e-09
0
0
3.56853e-09
0.00300454
0.00232442
0.257036
4.1649
0.000329452
0.000321383
0.000311069
0.000296002
0.000278309
0.000259259
0.000238663
0.000216012
0.000192205
0.000168142
0.000144516
0.000122198
0.000101786
8.35965e-05
6.78448e-05
5.46133e-05
4.37655e-05
3.50752e-05
2.82411e-05
2.29164e-05
1.87616e-05
1.54621e-05
1.27346e-05
1.03223e-05
8.11411e-06
6.20988e-06
4.69593e-06
3.54197e-06
2.66178e-06
1.98969e-06
1.48381e-06
1.10056e-06
8.12497e-07
6.00457e-07
4.72916e-07
3.65175e-07
1.74534e-07
1.09243e-09
4.05394e-07
0.000232893
0.00023667
0.000239381
0.000240805
0.000240769
0.000238737
0.00023474
0.000228519
0.000220073
0.000209595
0.000197232
0.000183332
0.000168325
0.000152627
0.000136734
0.000121092
0.000106024
9.1972e-05
7.9242e-05
6.77232e-05
5.7305e-05
4.80204e-05
3.99969e-05
3.32954e-05
2.74229e-05
2.23108e-05
1.78655e-05
1.42736e-05
1.1294e-05
8.83772e-06
4.86218e-06
9.54182e-07
5.66651e-09
2.05868e-11
0
0
0.00102623
0.0155247
1.23317
0.00022745
0.000221802
0.000214894
0.000204938
0.000193521
0.000181328
0.000168088
0.00015361
0.000138506
0.000123177
0.000107941
9.32579e-05
7.94909e-05
6.68592e-05
5.55488e-05
4.56939e-05
3.73161e-05
3.03478e-05
2.46635e-05
2.00861e-05
1.64154e-05
1.34431e-05
1.09712e-05
8.82159e-06
6.9071e-06
5.27144e-06
3.97065e-06
2.98307e-06
2.24066e-06
1.68445e-06
1.27704e-06
9.90905e-07
7.94546e-07
6.65655e-07
5.9182e-07
5.89664e-07
6.43475e-07
6.20226e-07
3.93042e-10
0.000164237
0.000167335
0.000169909
0.000171726
0.000172703
0.000172515
0.000171102
0.000168256
0.000163923
0.000158151
0.000150944
0.000142464
0.00013293
0.000122572
0.000111684
0.000100551
8.94588e-05
7.86852e-05
6.82073e-05
5.824e-05
4.91807e-05
4.12863e-05
3.46174e-05
2.89927e-05
2.40098e-05
1.94039e-05
1.5347e-05
1.2121e-05
9.89411e-06
8.34642e-06
7.61573e-06
5.77514e-06
2.89316e-06
1.88469e-08
1.05524e-10
0
5.4775e-11
0.000119088
0.228444
0.000160214
0.000156227
0.000151461
0.000144709
0.000137139
0.000129086
0.000120333
0.000110858
0.000101059
9.10999e-05
8.11282e-05
7.13935e-05
6.20836e-05
5.33293e-05
4.52797e-05
3.80584e-05
3.17246e-05
2.62968e-05
2.17322e-05
1.79501e-05
1.48369e-05
1.2258e-05
1.00767e-05
8.17159e-06
6.47515e-06
5.01403e-06
3.82974e-06
2.90899e-06
2.19967e-06
1.6536e-06
1.23857e-06
9.28116e-07
6.98612e-07
5.37553e-07
4.28221e-07
3.99262e-07
3.67062e-07
9.14971e-07
1.34138e-07
0.000117688
0.000120095
0.000122269
0.000123996
0.000125233
0.00012578
0.000125535
0.000124382
0.000122212
0.000119029
0.000114783
0.000109537
0.000103391
9.64683e-05
8.89572e-05
8.10656e-05
7.29861e-05
6.49592e-05
5.71601e-05
4.97541e-05
4.28707e-05
3.66372e-05
3.11211e-05
2.62775e-05
2.19071e-05
1.78361e-05
1.41561e-05
1.11061e-05
8.83994e-06
7.20965e-06
6.27668e-06
5.71734e-06
5.32372e-06
3.76866e-06
5.93664e-08
6.02576e-12
0
0.000384504
0.04037
0.00011478
0.000111947
0.000108599
0.000103912
9.8778e-05
9.33172e-05
8.73892e-05
8.10609e-05
7.45715e-05
6.79932e-05
6.13737e-05
5.48506e-05
4.85228e-05
4.24577e-05
3.67423e-05
3.14733e-05
2.67135e-05
2.25036e-05
1.88549e-05
1.57392e-05
1.31003e-05
1.08631e-05
8.9429e-06
7.26092e-06
5.7725e-06
4.49165e-06
3.44447e-06
2.62283e-06
1.98753e-06
1.49944e-06
1.13042e-06
8.59399e-07
6.64741e-07
5.32198e-07
4.45008e-07
4.24454e-07
4.01712e-07
7.1653e-07
1.02175e-06
8.56016e-05
8.74492e-05
8.92156e-05
9.07135e-05
9.19494e-05
9.27711e-05
9.31061e-05
9.28515e-05
9.19263e-05
9.03083e-05
8.79328e-05
8.48088e-05
8.09721e-05
7.64807e-05
7.14326e-05
6.59526e-05
6.01783e-05
5.42798e-05
4.8384e-05
4.25678e-05
3.70095e-05
3.19112e-05
2.73493e-05
2.32954e-05
1.96084e-05
1.61668e-05
1.30224e-05
1.03528e-05
8.27198e-06
6.71551e-06
5.57329e-06
4.8389e-06
4.35804e-06
4.92308e-06
3.80254e-06
1.63357e-09
1.38385e-16
0.00013249
0.0119336
8.34773e-05
8.13942e-05
7.89807e-05
7.56626e-05
7.21175e-05
6.83358e-05
6.42525e-05
5.99572e-05
5.55847e-05
5.11632e-05
4.67137e-05
4.23024e-05
3.7976e-05
3.37589e-05
2.971e-05
2.58895e-05
2.23447e-05
1.91222e-05
1.62459e-05
1.37223e-05
1.15321e-05
9.63496e-06
7.97899e-06
6.51622e-06
5.22213e-06
4.10319e-06
3.17731e-06
2.43973e-06
1.86184e-06
1.41238e-06
1.06773e-06
8.08978e-07
6.18062e-07
4.83888e-07
3.93801e-07
3.61817e-07
3.49153e-07
5.23017e-07
1.18978e-06
6.30511e-05
6.44695e-05
6.58795e-05
6.71253e-05
6.82302e-05
6.90857e-05
6.96443e-05
6.98227e-05
6.95532e-05
6.88104e-05
6.75329e-05
6.57082e-05
6.33385e-05
6.04364e-05
5.70581e-05
5.32743e-05
4.91741e-05
4.48644e-05
4.04785e-05
3.60886e-05
3.18063e-05
2.77807e-05
2.40772e-05
2.0699e-05
1.75762e-05
1.46435e-05
1.19477e-05
9.62809e-06
7.77888e-06
6.37003e-06
5.28374e-06
4.47716e-06
3.8464e-06
3.60917e-06
4.67274e-06
2.22331e-06
2.90285e-13
6.37702e-05
0.00493857
6.14636e-05
5.98846e-05
5.81047e-05
5.57223e-05
5.3236e-05
5.05825e-05
4.77363e-05
4.47801e-05
4.17939e-05
3.87868e-05
3.57617e-05
3.27483e-05
2.9769e-05
2.68326e-05
2.39603e-05
2.11949e-05
1.85699e-05
1.61224e-05
1.38791e-05
1.18567e-05
1.00556e-05
8.45975e-06
7.04298e-06
5.7809e-06
4.66116e-06
3.6891e-06
2.87642e-06
2.22109e-06
1.70272e-06
1.29694e-06
9.84268e-07
7.48859e-07
5.75983e-07
4.54709e-07
3.7341e-07
3.4179e-07
3.30577e-07
4.50421e-07
1.00149e-06
4.69273e-05
4.80268e-05
4.91499e-05
5.01701e-05
5.1119e-05
5.19229e-05
5.25369e-05
5.29056e-05
5.29793e-05
5.27274e-05
5.21053e-05
5.10851e-05
4.96629e-05
4.78336e-05
4.56158e-05
4.30448e-05
4.01731e-05
3.70698e-05
3.38408e-05
3.05249e-05
2.72085e-05
2.40206e-05
2.103e-05
1.82523e-05
1.56478e-05
1.31799e-05
1.08902e-05
8.88961e-06
7.26302e-06
6.00084e-06
5.02501e-06
4.26302e-06
3.69705e-06
3.15484e-06
3.24204e-06
5.41072e-06
2.49353e-09
1.52469e-05
0.00180494
4.57002e-05
4.44774e-05
4.31453e-05
4.14215e-05
3.96502e-05
3.77724e-05
3.57701e-05
3.37191e-05
3.16571e-05
2.959e-05
2.75131e-05
2.54408e-05
2.33786e-05
2.13233e-05
1.92872e-05
1.72906e-05
1.53543e-05
1.35079e-05
1.17744e-05
1.01718e-05
8.70831e-06
7.38327e-06
6.18698e-06
5.11108e-06
4.15146e-06
3.31293e-06
2.60459e-06
2.0259e-06
1.56278e-06
1.19673e-06
9.11988e-07
6.95212e-07
5.3394e-07
4.18953e-07
3.40409e-07
3.06614e-07
2.92066e-07
3.85673e-07
8.11028e-07
3.52164e-05
3.60795e-05
3.69782e-05
3.78075e-05
3.86071e-05
3.93243e-05
3.99157e-05
4.03497e-05
4.05876e-05
4.06012e-05
4.03578e-05
3.98329e-05
3.90097e-05
3.78774e-05
3.64371e-05
3.47071e-05
3.27178e-05
3.05062e-05
2.81507e-05
2.56825e-05
2.31597e-05
2.06748e-05
1.8293e-05
1.60343e-05
1.38816e-05
1.18192e-05
9.88482e-06
8.16765e-06
6.74326e-06
5.61543e-06
4.73724e-06
4.0445e-06
3.52863e-06
3.12892e-06
2.55154e-06
4.46293e-06
7.98372e-07
1.8222e-07
0.000460614
3.42473e-05
3.3289e-05
3.22855e-05
3.10301e-05
2.97527e-05
2.84139e-05
2.6997e-05
2.55606e-05
2.41267e-05
2.26947e-05
2.12598e-05
1.98235e-05
1.83882e-05
1.69466e-05
1.55002e-05
1.40612e-05
1.264e-05
1.12542e-05
9.92305e-06
8.66304e-06
7.48681e-06
6.39964e-06
5.40089e-06
4.4902e-06
3.67216e-06
2.95305e-06
2.33955e-06
1.832e-06
1.42122e-06
1.09356e-06
8.36593e-07
6.39545e-07
4.92094e-07
3.86136e-07
3.1292e-07
2.78987e-07
2.62115e-07
3.31236e-07
6.59989e-07
2.66027e-05
2.7289e-05
2.80088e-05
2.86838e-05
2.93537e-05
2.9975e-05
3.05159e-05
3.09537e-05
3.12594e-05
3.14118e-05
3.13836e-05
3.11528e-05
3.07065e-05
3.00282e-05
2.91174e-05
2.79748e-05
2.66153e-05
2.50596e-05
2.33582e-05
2.1539e-05
1.96355e-05
1.77124e-05
1.58321e-05
1.40159e-05
1.22557e-05
1.05483e-05
8.92798e-06
7.46655e-06
6.22931e-06
5.22929e-06
4.43793e-06
3.81522e-06
3.32028e-06
3.04668e-06
2.47208e-06
2.98431e-06
3.4863e-06
2.67187e-10
6.49732e-05
2.58362e-05
2.50836e-05
2.43267e-05
2.34072e-05
2.24754e-05
2.15096e-05
2.04988e-05
1.94851e-05
1.848e-05
1.7482e-05
1.64841e-05
1.54858e-05
1.4484e-05
1.34695e-05
1.2442e-05
1.14039e-05
1.03627e-05
9.32789e-06
8.31305e-06
7.33133e-06
6.39443e-06
5.51081e-06
4.68484e-06
3.92256e-06
3.23167e-06
2.61943e-06
2.09151e-06
1.64937e-06
1.28734e-06
9.95681e-07
7.64821e-07
5.86207e-07
4.51196e-07
3.52929e-07
2.83971e-07
2.49529e-07
2.30913e-07
2.80351e-07
5.35279e-07
2.02092e-05
2.07568e-05
2.13328e-05
2.18838e-05
2.24405e-05
2.29703e-05
2.34491e-05
2.38608e-05
2.41809e-05
2.43957e-05
2.44843e-05
2.44282e-05
2.4218e-05
2.38366e-05
2.32772e-05
2.25369e-05
2.16205e-05
2.054e-05
1.93224e-05
1.79975e-05
1.65782e-05
1.51077e-05
1.36403e-05
1.21962e-05
1.07731e-05
9.37285e-06
8.02678e-06
6.79282e-06
5.72674e-06
4.84789e-06
4.13871e-06
3.58012e-06
3.11925e-06
2.85506e-06
2.52219e-06
2.20222e-06
4.55825e-06
5.57143e-10
2.20651e-08
1.96085e-05
1.90223e-05
1.84486e-05
1.77701e-05
1.70822e-05
1.63767e-05
1.56484e-05
1.49267e-05
1.4217e-05
1.35166e-05
1.28195e-05
1.21216e-05
1.14193e-05
1.07051e-05
9.97402e-06
9.22713e-06
8.46592e-06
7.69696e-06
6.92764e-06
6.16841e-06
5.42872e-06
4.71688e-06
4.03996e-06
3.40702e-06
2.82784e-06
2.30965e-06
1.85827e-06
1.4757e-06
1.1587e-06
9.00727e-07
6.94609e-07
5.33719e-07
4.11018e-07
3.20709e-07
2.56449e-07
2.22177e-07
2.02403e-07
2.35865e-07
4.3105e-07
1.54331e-05
1.58677e-05
1.63278e-05
1.67772e-05
1.72354e-05
1.76829e-05
1.80968e-05
1.84675e-05
1.87764e-05
1.90128e-05
1.916e-05
1.92055e-05
1.91375e-05
1.89436e-05
1.86165e-05
1.81506e-05
1.75459e-05
1.68064e-05
1.59463e-05
1.49913e-05
1.39442e-05
1.28315e-05
1.1698e-05
1.05624e-05
9.42423e-06
8.28797e-06
7.18018e-06
6.14778e-06
5.23762e-06
4.47237e-06
3.84308e-06
3.34151e-06
2.92949e-06
2.64241e-06
2.4718e-06
1.98024e-06
3.73033e-06
9.48495e-08
3.14022e-10
1.4967e-05
1.45141e-05
1.40772e-05
1.35708e-05
1.30581e-05
1.25354e-05
1.20049e-05
1.14852e-05
1.09794e-05
1.04839e-05
9.99394e-06
9.50447e-06
9.01104e-06
8.5065e-06
7.98631e-06
7.44883e-06
6.89373e-06
6.32406e-06
5.74417e-06
5.16056e-06
4.58127e-06
4.01376e-06
3.46476e-06
2.94332e-06
2.46044e-06
2.02493e-06
1.64164e-06
1.31284e-06
1.03713e-06
8.10354e-07
6.27371e-07
4.83174e-07
3.72115e-07
2.8936e-07
2.29594e-07
1.9577e-07
1.75319e-07
1.96664e-07
3.44193e-07
1.1846e-05
1.21879e-05
1.25559e-05
1.29187e-05
1.32952e-05
1.36675e-05
1.40206e-05
1.43446e-05
1.4628e-05
1.48611e-05
1.50317e-05
1.51288e-05
1.51452e-05
1.5069e-05
1.48948e-05
1.46148e-05
1.42264e-05
1.37308e-05
1.31329e-05
1.24528e-05
1.16882e-05
1.08556e-05
9.98945e-06
9.10569e-06
8.20521e-06
7.29226e-06
6.38903e-06
5.53331e-06
4.76383e-06
4.10378e-06
3.55146e-06
3.10272e-06
2.73983e-06
2.4515e-06
2.31983e-06
1.96746e-06
2.5453e-06
1.27536e-06
8.77256e-08
1.14871e-05
1.11383e-05
1.08029e-05
1.04215e-05
1.00351e-05
9.64343e-06
9.25213e-06
8.87388e-06
8.50935e-06
8.15594e-06
7.80904e-06
7.46343e-06
7.11527e-06
6.75802e-06
6.3872e-06
6.00066e-06
5.59662e-06
5.17578e-06
4.74069e-06
4.29545e-06
3.84501e-06
3.39539e-06
2.95316e-06
2.52754e-06
2.12893e-06
1.76541e-06
1.44191e-06
1.16106e-06
9.22759e-07
7.24601e-07
5.63093e-07
4.34561e-07
3.34588e-07
2.59179e-07
2.03919e-07
1.7097e-07
1.50292e-07
1.62449e-07
2.72311e-07
9.1375e-06
9.40553e-06
9.69837e-06
9.99055e-06
1.02967e-05
1.06043e-05
1.08999e-05
1.11785e-05
1.14294e-05
1.16459e-05
1.1819e-05
1.19403e-05
1.20036e-05
1.20004e-05
1.19235e-05
1.17676e-05
1.15282e-05
1.12042e-05
1.07957e-05
1.03181e-05
9.76729e-06
9.15241e-06
8.49742e-06
7.8167e-06
7.11156e-06
6.38542e-06
5.65589e-06
4.9531e-06
4.30876e-06
3.74473e-06
3.2648e-06
2.86673e-06
2.54637e-06
2.28003e-06
2.13271e-06
1.95012e-06
1.90556e-06
2.10353e-06
7.5075e-07
8.86205e-06
8.59238e-06
8.33297e-06
8.04336e-06
7.74916e-06
7.4532e-06
7.16135e-06
6.88251e-06
6.61693e-06
6.36222e-06
6.11447e-06
5.86899e-06
5.62178e-06
5.36812e-06
5.10328e-06
4.8249e-06
4.53109e-06
4.2212e-06
3.89582e-06
3.55756e-06
3.20989e-06
2.85683e-06
2.5036e-06
2.15872e-06
1.83186e-06
1.53029e-06
1.259e-06
1.02071e-06
8.16088e-07
6.44024e-07
5.02308e-07
3.88351e-07
2.98804e-07
2.30415e-07
1.7955e-07
1.47784e-07
1.27281e-07
1.32825e-07
2.13606e-07
7.0808e-06
7.29119e-06
7.52348e-06
7.7577e-06
8.00538e-06
8.25703e-06
8.50203e-06
8.73733e-06
8.9545e-06
9.1482e-06
9.31208e-06
9.43942e-06
9.52533e-06
9.56303e-06
9.54702e-06
9.47217e-06
9.33363e-06
9.12958e-06
8.85813e-06
8.52953e-06
8.13896e-06
7.69127e-06
7.20197e-06
6.68357e-06
6.13742e-06
5.56551e-06
4.98175e-06
4.40979e-06
3.87542e-06
3.39808e-06
2.98492e-06
2.63559e-06
2.35163e-06
2.11624e-06
1.95073e-06
1.86685e-06
1.63626e-06
1.94859e-06
1.51656e-06
6.86864e-06
6.65878e-06
6.45671e-06
6.23508e-06
6.00954e-06
5.78428e-06
5.56472e-06
5.35732e-06
5.16183e-06
4.97636e-06
4.79739e-06
4.6212e-06
4.44468e-06
4.26353e-06
4.07385e-06
3.87306e-06
3.65922e-06
3.43134e-06
3.18905e-06
2.93338e-06
2.66619e-06
2.3908e-06
2.11105e-06
1.83376e-06
1.56725e-06
1.31875e-06
1.09278e-06
8.91943e-07
7.17374e-07
5.68883e-07
4.45243e-07
3.4474e-07
2.64946e-07
2.03251e-07
1.5668e-07
1.26398e-07
1.06406e-07
1.07295e-07
1.65885e-07
5.50944e-06
5.67494e-06
5.85974e-06
6.0467e-06
6.24667e-06
6.45128e-06
6.65277e-06
6.84917e-06
7.03376e-06
7.20272e-06
7.35095e-06
7.47372e-06
7.56735e-06
7.62621e-06
7.64658e-06
7.6231e-06
7.55213e-06
7.43114e-06
7.25703e-06
7.03555e-06
6.76416e-06
6.44344e-06
6.08277e-06
5.69267e-06
5.27464e-06
4.82908e-06
4.36643e-06
3.90532e-06
3.46636e-06
3.06625e-06
2.71381e-06
2.41057e-06
2.15944e-06
1.95432e-06
1.78456e-06
1.73369e-06
1.51163e-06
1.59939e-06
1.73765e-06
5.34487e-06
5.18022e-06
5.02191e-06
4.85115e-06
4.67741e-06
4.50527e-06
4.3391e-06
4.18348e-06
4.03818e-06
3.90157e-06
3.77141e-06
3.64399e-06
3.5168e-06
3.38651e-06
3.24981e-06
3.10464e-06
2.94892e-06
2.7812e-06
2.60096e-06
2.40836e-06
2.20434e-06
1.99066e-06
1.77028e-06
1.54877e-06
1.3333e-06
1.13e-06
9.42953e-07
7.74728e-07
6.2671e-07
4.9932e-07
3.92073e-07
3.03923e-07
2.33146e-07
1.77788e-07
1.35388e-07
1.06848e-07
8.76943e-08
8.55244e-08
1.27502e-07
4.30169e-06
4.43268e-06
4.57971e-06
4.72921e-06
4.89042e-06
5.05621e-06
5.22118e-06
5.38348e-06
5.53862e-06
5.68321e-06
5.81388e-06
5.92675e-06
6.01922e-06
6.08691e-06
6.12662e-06
6.13451e-06
6.10709e-06
6.04169e-06
5.93557e-06
5.79067e-06
5.60711e-06
5.38172e-06
5.12005e-06
4.83079e-06
4.51485e-06
4.1716e-06
3.80865e-06
3.44053e-06
3.08342e-06
2.75139e-06
2.45342e-06
2.19274e-06
1.97207e-06
1.79346e-06
1.63208e-06
1.57964e-06
1.41965e-06
1.33348e-06
1.58903e-06
4.17257e-06
4.04297e-06
3.91853e-06
3.78583e-06
3.65163e-06
3.51984e-06
3.39327e-06
3.27587e-06
3.1671e-06
3.0657e-06
2.96989e-06
2.87687e-06
2.78443e-06
2.69021e-06
2.59132e-06
2.48574e-06
2.37193e-06
2.24848e-06
2.11447e-06
1.96964e-06
1.81437e-06
1.64948e-06
1.47698e-06
1.30123e-06
1.12808e-06
9.62788e-07
8.08831e-07
6.68784e-07
5.44071e-07
4.35458e-07
3.42979e-07
2.66083e-07
2.03592e-07
1.54178e-07
1.15813e-07
8.92108e-08
7.11385e-08
6.71314e-08
9.69527e-08
3.36837e-06
3.47261e-06
3.58994e-06
3.7099e-06
3.83956e-06
3.97393e-06
4.10844e-06
4.24208e-06
4.37106e-06
4.49332e-06
4.606e-06
4.70656e-06
4.79262e-06
4.86148e-06
4.91033e-06
4.93599e-06
4.9358e-06
4.90697e-06
4.84739e-06
4.75676e-06
4.63602e-06
4.48138e-06
4.29512e-06
4.08415e-06
3.84853e-06
3.58732e-06
3.30583e-06
3.01509e-06
2.72752e-06
2.45483e-06
2.20533e-06
1.98344e-06
1.79117e-06
1.63531e-06
1.48893e-06
1.42444e-06
1.32018e-06
1.15823e-06
1.3392e-06
3.26588e-06
3.16393e-06
3.06587e-06
2.96222e-06
2.8584e-06
2.75708e-06
2.66028e-06
2.57108e-06
2.48909e-06
2.41326e-06
2.34234e-06
2.27395e-06
2.20634e-06
2.13753e-06
2.06532e-06
1.98827e-06
1.90486e-06
1.81378e-06
1.7141e-06
1.60538e-06
1.48753e-06
1.36081e-06
1.22643e-06
1.08769e-06
9.49274e-07
8.15549e-07
6.897e-07
5.73813e-07
4.6937e-07
3.77327e-07
2.98025e-07
2.3131e-07
1.76478e-07
1.3261e-07
9.81098e-08
7.35653e-08
5.67552e-08
5.17444e-08
7.27775e-08
2.64384e-06
2.72719e-06
2.82103e-06
2.9176e-06
3.02205e-06
3.13092e-06
3.24043e-06
3.35003e-06
3.45691e-06
3.55923e-06
3.65525e-06
3.74283e-06
3.82036e-06
3.88587e-06
3.937e-06
3.97168e-06
3.98742e-06
3.98192e-06
3.9533e-06
3.90035e-06
3.82429e-06
3.72087e-06
3.59098e-06
3.43957e-06
3.26666e-06
3.07067e-06
2.8551e-06
2.62805e-06
2.39904e-06
2.17741e-06
1.97068e-06
1.78359e-06
1.61777e-06
1.48175e-06
1.35256e-06
1.27781e-06
1.2071e-06
1.03512e-06
1.10924e-06
2.5621e-06
2.48183e-06
2.40455e-06
2.32326e-06
2.24264e-06
2.16434e-06
2.09001e-06
2.02198e-06
1.95977e-06
1.90272e-06
1.84977e-06
1.799e-06
1.74907e-06
1.69861e-06
1.64572e-06
1.58909e-06
1.52763e-06
1.46022e-06
1.38601e-06
1.30434e-06
1.215e-06
1.11788e-06
1.01367e-06
9.04705e-07
7.9472e-07
6.87123e-07
5.84771e-07
4.89394e-07
4.02425e-07
3.24854e-07
2.57229e-07
1.99661e-07
1.51841e-07
1.13111e-07
8.22845e-08
5.98706e-08
4.44406e-08
3.90587e-08
5.38841e-08
2.07937e-06
2.14631e-06
2.22152e-06
2.29922e-06
2.38356e-06
2.47171e-06
2.56085e-06
2.6505e-06
2.73874e-06
2.82392e-06
2.90496e-06
2.98011e-06
3.04843e-06
3.10815e-06
3.15783e-06
3.19582e-06
3.22007e-06
3.22878e-06
3.22017e-06
3.19297e-06
3.14794e-06
3.08147e-06
2.99316e-06
2.8868e-06
2.76194e-06
2.61686e-06
2.45372e-06
2.2784e-06
2.09807e-06
1.91993e-06
1.75036e-06
1.59414e-06
1.45268e-06
1.33404e-06
1.22193e-06
1.14233e-06
1.08623e-06
9.35263e-07
9.27042e-07
2.01424e-06
1.95102e-06
1.8901e-06
1.82613e-06
1.7632e-06
1.7024e-06
1.64504e-06
1.59278e-06
1.54534e-06
1.50211e-06
1.46235e-06
1.42442e-06
1.38728e-06
1.34994e-06
1.31094e-06
1.26915e-06
1.22368e-06
1.17357e-06
1.1182e-06
1.05689e-06
9.89221e-07
9.14884e-07
8.34205e-07
7.48909e-07
6.61847e-07
5.75788e-07
4.92943e-07
4.14898e-07
3.42882e-07
2.77865e-07
2.20531e-07
1.71133e-07
1.2964e-07
9.56436e-08
6.82958e-08
4.80482e-08
3.4074e-08
2.87525e-08
3.92595e-08
1.63852e-06
1.69228e-06
1.75266e-06
1.81519e-06
1.88329e-06
1.95468e-06
2.0271e-06
2.10046e-06
2.17303e-06
2.2437e-06
2.31156e-06
2.37542e-06
2.43456e-06
2.48773e-06
2.53389e-06
2.57167e-06
2.59958e-06
2.61625e-06
2.62009e-06
2.6099e-06
2.58602e-06
2.54557e-06
2.48761e-06
2.41464e-06
2.32623e-06
2.22054e-06
2.09878e-06
1.96505e-06
1.8246e-06
1.68297e-06
1.5453e-06
1.41603e-06
1.29658e-06
1.1937e-06
1.09705e-06
1.01811e-06
9.65628e-07
8.43569e-07
7.87918e-07
1.58673e-06
1.53699e-06
1.4889e-06
1.43836e-06
1.38899e-06
1.3415e-06
1.29697e-06
1.25665e-06
1.22022e-06
1.18722e-06
1.15708e-06
1.12853e-06
1.10076e-06
1.07298e-06
1.04396e-06
1.01291e-06
9.79114e-07
9.41837e-07
9.00387e-07
8.54244e-07
8.02984e-07
7.46198e-07
6.83901e-07
6.17378e-07
5.48719e-07
4.80119e-07
4.13366e-07
3.49781e-07
2.90426e-07
2.36221e-07
1.8785e-07
1.45688e-07
1.09875e-07
8.02043e-08
5.61086e-08
3.80068e-08
2.55153e-08
2.05341e-08
2.81036e-08
1.29355e-06
1.33661e-06
1.38512e-06
1.43538e-06
1.49034e-06
1.54816e-06
1.60694e-06
1.66687e-06
1.72636e-06
1.78481e-06
1.84134e-06
1.89517e-06
1.94569e-06
1.99218e-06
2.0337e-06
2.06931e-06
2.09798e-06
2.11843e-06
2.1296e-06
2.13018e-06
2.12051e-06
2.09803e-06
2.06172e-06
2.0131e-06
1.95188e-06
1.87634e-06
1.78679e-06
1.68613e-06
1.57803e-06
1.46663e-06
1.35605e-06
1.25012e-06
1.15008e-06
1.06155e-06
9.78499e-07
9.04279e-07
8.50962e-07
7.54345e-07
6.79711e-07
1.25238e-06
1.21325e-06
1.17524e-06
1.1352e-06
1.09628e-06
1.05904e-06
1.02422e-06
9.92887e-07
9.64709e-07
9.39306e-07
9.1628e-07
8.94598e-07
8.73636e-07
8.5283e-07
8.31145e-07
8.07945e-07
7.82693e-07
7.5479e-07
7.23698e-07
6.88923e-07
6.50039e-07
6.06677e-07
5.58658e-07
5.06878e-07
4.52905e-07
3.98411e-07
3.4483e-07
2.93258e-07
2.44573e-07
1.99607e-07
1.5901e-07
1.23217e-07
9.24741e-08
6.67309e-08
4.56501e-08
2.96287e-08
1.86015e-08
1.41203e-08
1.97139e-08
1.02301e-06
1.0575e-06
1.09636e-06
1.13678e-06
1.18107e-06
1.22779e-06
1.27551e-06
1.32432e-06
1.37302e-06
1.42112e-06
1.46804e-06
1.51308e-06
1.55596e-06
1.59603e-06
1.63264e-06
1.66515e-06
1.6927e-06
1.71435e-06
1.7293e-06
1.73634e-06
1.73575e-06
1.72542e-06
1.70417e-06
1.67317e-06
1.63192e-06
1.57893e-06
1.51414e-06
1.43944e-06
1.3573e-06
1.2707e-06
1.18277e-06
1.09678e-06
1.0139e-06
9.38128e-07
8.66974e-07
7.99571e-07
7.45217e-07
6.67075e-07
5.90711e-07
9.90322e-07
9.59523e-07
9.2941e-07
8.97593e-07
8.66796e-07
8.37476e-07
8.10108e-07
7.85589e-07
7.6362e-07
7.43928e-07
7.26187e-07
7.09568e-07
6.93601e-07
6.77867e-07
6.61542e-07
6.44097e-07
6.25147e-07
6.04193e-07
5.80779e-07
5.54506e-07
5.25019e-07
4.91881e-07
4.54876e-07
4.14632e-07
3.72277e-07
3.29141e-07
2.86286e-07
2.44622e-07
2.04864e-07
1.67727e-07
1.3382e-07
1.03585e-07
7.73348e-08
5.513e-08
3.68171e-08
2.27755e-08
1.31585e-08
9.24984e-09
1.35212e-08
8.10399e-07
8.38021e-07
8.69118e-07
9.01587e-07
9.37266e-07
9.74963e-07
1.01364e-06
1.05332e-06
1.09311e-06
1.13257e-06
1.17136e-06
1.20888e-06
1.24495e-06
1.27907e-06
1.31087e-06
1.33975e-06
1.36521e-06
1.3865e-06
1.40294e-06
1.4135e-06
1.41845e-06
1.41602e-06
1.40513e-06
1.38646e-06
1.35967e-06
1.32341e-06
1.27739e-06
1.22274e-06
1.16112e-06
1.09459e-06
1.02545e-06
9.56253e-07
8.88201e-07
8.24017e-07
7.62978e-07
7.0339e-07
6.49698e-07
5.83843e-07
5.13325e-07
7.84449e-07
7.60117e-07
7.36234e-07
7.109e-07
6.86501e-07
6.63314e-07
6.41713e-07
6.22412e-07
6.05174e-07
5.89766e-07
5.75957e-07
5.63136e-07
5.50888e-07
5.38858e-07
5.26452e-07
5.13238e-07
4.98947e-07
4.83144e-07
4.6545e-07
4.4555e-07
4.23143e-07
3.9779e-07
3.69282e-07
3.38047e-07
3.04906e-07
2.70813e-07
2.36644e-07
2.03092e-07
1.7075e-07
1.4021e-07
1.1202e-07
8.66097e-08
6.43127e-08
4.52801e-08
2.94846e-08
1.72935e-08
9.00155e-09
5.67744e-09
9.0562e-09
6.42967e-07
6.65064e-07
6.89966e-07
7.16009e-07
7.44727e-07
7.7514e-07
8.06413e-07
8.38626e-07
8.71062e-07
9.03354e-07
9.35267e-07
9.66353e-07
9.96481e-07
1.02532e-06
1.05256e-06
1.07785e-06
1.10073e-06
1.12065e-06
1.13709e-06
1.14927e-06
1.15729e-06
1.15983e-06
1.15584e-06
1.14568e-06
1.1291e-06
1.10501e-06
1.07301e-06
1.03365e-06
9.88015e-07
9.37509e-07
8.83728e-07
8.28605e-07
7.73166e-07
7.19317e-07
6.67048e-07
6.15297e-07
5.6423e-07
5.06519e-07
4.44003e-07
6.22302e-07
6.02999e-07
5.84038e-07
5.63875e-07
5.44504e-07
5.26128e-07
5.09028e-07
4.9376e-07
4.80151e-07
4.68012e-07
4.57202e-07
4.47173e-07
4.37667e-07
4.28426e-07
4.18932e-07
4.0886e-07
3.97994e-07
3.85997e-07
3.72581e-07
3.57476e-07
3.40404e-07
3.20999e-07
2.99029e-07
2.74782e-07
2.48884e-07
2.22003e-07
1.94834e-07
1.67901e-07
1.41682e-07
1.16671e-07
9.33389e-08
7.20926e-08
5.32523e-08
3.70369e-08
2.35073e-08
1.30163e-08
5.93929e-09
3.17452e-09
5.93189e-09
5.10787e-07
5.28492e-07
5.48418e-07
5.69314e-07
5.92406e-07
6.16922e-07
6.42189e-07
6.68287e-07
6.94669e-07
7.21017e-07
7.47192e-07
7.72836e-07
7.97865e-07
8.2206e-07
8.45177e-07
8.6697e-07
8.87097e-07
9.05151e-07
9.20768e-07
9.33343e-07
9.42783e-07
9.48239e-07
9.48586e-07
9.44113e-07
9.34646e-07
9.19298e-07
8.9755e-07
8.69715e-07
8.36396e-07
7.98484e-07
7.57076e-07
7.13547e-07
6.68793e-07
6.24022e-07
5.79466e-07
5.34852e-07
4.88136e-07
4.36638e-07
3.81647e-07
4.94273e-07
4.78934e-07
4.63859e-07
4.47811e-07
4.32428e-07
4.17845e-07
4.04275e-07
3.92165e-07
3.81372e-07
3.7175e-07
3.63202e-07
3.55323e-07
3.47888e-07
3.40705e-07
3.33368e-07
3.25639e-07
3.17335e-07
3.08192e-07
2.97975e-07
2.86472e-07
2.73434e-07
2.58554e-07
2.41612e-07
2.22805e-07
2.02572e-07
1.81417e-07
1.5985e-07
1.38291e-07
1.17108e-07
9.67092e-08
7.74833e-08
5.97997e-08
4.39655e-08
3.02331e-08
1.87268e-08
9.77532e-09
3.79237e-09
1.53133e-09
3.83391e-09
4.06212e-07
4.2041e-07
4.3636e-07
4.53137e-07
4.71708e-07
4.91457e-07
5.11863e-07
5.32995e-07
5.54402e-07
5.75866e-07
5.97268e-07
6.18341e-07
6.39031e-07
6.59186e-07
6.7863e-07
6.97203e-07
7.14648e-07
7.30679e-07