/*--------------------------------*- C++ -*----------------------------------*\
| =========                 |                                                 |
| \\      /  F ield         | OpenFOAM: The Open Source CFD Toolbox           |
|  \\    /   O peration     | Version:  2312                                  |
|   \\  /    A nd           | Website:  www.openfoam.com                      |
|    \\/     M anipulation  |                                                 |
\*---------------------------------------------------------------------------*/
FoamFile
{
    version     2.0;
    format      ascii;
    arch        "LSB;label=32;scalar=64";
    class       volScalarField;
    location    "100";
    object      turbulenceProperties:k;
}
// * * * * * * * * * * * * * * * * * * * * * * * * * * * * * * * * * * * * * //

dimensions      [0 2 -2 0 0 0 0];

internalField   nonuniform List<scalar> 
10720
(
0.0147968
0.0173669
0.020668
0.0251176
0.0304136
0.0371566
0.0457769
0.0564688
0.0700322
0.0873049
0.109452
0.138641
0.178319
0.232876
0.309747
0.422207
0.59016
0.857545
1.27781
2.05051
3.27789
6.19547
10.8232
26.0659
44.5732
50.5358
49.7114
48.2749
47.2972
46.1678
44.3898
41.8609
38.7557
35.1375
30.9041
26.1207
20.0158
14.2618
3.25948
0.0124972
0.0106151
0.00855416
0.00677936
0.00513668
0.00377832
0.00299476
0.0033249
0.00444471
0.00638557
0.00931562
0.013527
0.0194562
0.0277125
0.039123
0.0551563
0.078376
0.113384
0.168645
0.258901
0.415506
0.690367
1.22762
2.23512
4.53388
9.11326
20.7016
38.3614
50.2326
54.7106
55.815
55.8584
55.3823
54.4761
53.1859
51.5804
49.3079
46.73
38.3968
0.00286773
0.00286534
0.00283905
0.00276653
0.00265246
0.00251573
0.0023507
0.00216282
0.00197294
0.00178235
0.00160007
0.00144232
0.00130131
0.00124169
0.0013498
0.00174685
0.00286146
0.0056323
0.0120753
0.0299145
0.0747681
0.227868
0.602076
1.86768
4.77086
8.4044
12.2436
15.6876
17.9124
18.1886
16.6072
14.283
12.0575
10.2496
8.86613
7.78957
7.03645
6.21565
6.87203
0.00283261
0.00278268
0.00270182
0.00258101
0.00240861
0.00219643
0.00199243
0.00177712
0.00154995
0.00133114
0.00113382
0.000959807
0.000806876
0.000673101
0.000558225
0.00046169
0.000380059
0.000311379
0.00025101
0.000195324
0.000139137
8.26583e-05
3.33142e-05
8.55793e-06
0.00023318
0.00286925
0.0183198
0.112843
0.316019
0.566568
0.811554
1.01993
1.18876
1.33219
1.46327
1.59693
1.73862
2.05903
2.81091
0.00195078
0.00192667
0.00187562
0.00180071
0.00172075
0.00163136
0.00153852
0.00145307
0.00137772
0.00131705
0.00127042
0.0012371
0.00121402
0.00120474
0.00120972
0.00122654
0.00117068
0.00102812
0.000364146
0.000193521
0.00224809
0.0147
0.000370226
0.000270977
0.00205903
0.0451797
0.21787
0.714189
1.87351
3.98601
6.82574
9.39893
10.7144
10.6306
9.74687
8.61015
7.67269
6.47838
7.35826
0.0019698
0.00197329
0.00196951
0.00193287
0.00185387
0.00173029
0.00158827
0.00144904
0.00129334
0.00112011
0.000943699
0.000778654
0.000632312
0.000507086
0.00040608
0.000327415
0.000268681
0.000226212
0.000197049
0.00017761
0.000165473
0.000159232
0.000157964
0.000160333
0.000164156
0.000166133
0.000167532
0.000110013
0.00136718
0.00631909
0.0157342
0.0327256
0.0742882
0.15023
0.255822
0.378968
0.506516
0.593989
0.980415
0.00160291
0.00160576
0.00159779
0.0015835
0.00155659
0.00151671
0.00146703
0.00140558
0.00133535
0.00125778
0.0011747
0.00108895
0.00100261
0.000914652
0.000826337
0.000736647
0.000639896
0.000543679
0.000448405
0.000338893
0.000249836
2.24883e-05
3.0804e-05
2.07842e-05
0.00276953
0.0130073
0.0318784
0.0613574
0.00524453
0.0158737
0.148629
0.849111
2.49624
4.81866
6.83511
7.81582
8.01393
7.34464
7.92157
0.00158843
0.00156722
0.00153344
0.00148757
0.00142292
0.00134179
0.00125404
0.00115464
0.00104176
0.000922958
0.000807184
0.000700972
0.00060648
0.000524041
0.000454187
0.000395639
0.000347472
0.000308155
0.000276657
0.000250989
0.000230106
0.000212419
0.000196289
0.000178773
0.000160409
0.000145403
0.00013378
0.000127221
0.000107297
0.000123106
2.18081e-05
2.75704e-05
0.000421695
0.000635921
0.00384736
0.0168177
0.0494132
0.115497
0.397934
0.00122454
0.00122037
0.00120963
0.00119122
0.0011642
0.00112789
0.00108378
0.0010326
0.000975986
0.000916932
0.000857489
0.000800041
0.000746569
0.00069869
0.000657247
0.000623955
0.000596923
0.000569271
0.000534672
0.000489973
0.000415575
0.000317318
7.93744e-05
1.35622e-05
5.75619e-06
2.2992e-09
0
0
0.00143184
0.0169788
0.056665
0.0198912
0.0540383
0.256272
1.48239
3.74025
6.03649
7.21821
8.14754
0.00122223
0.00121457
0.00119769
0.00116777
0.00112366
0.00106759
0.00100657
0.000937367
0.000858718
0.000774628
0.000688789
0.000604911
0.00052543
0.000451861
0.000385801
0.000328024
0.000278793
0.000237865
0.00020479
0.000178487
0.00015796
0.000141909
0.000128954
0.000116777
0.000104089
9.21632e-05
8.3141e-05
7.76178e-05
7.59351e-05
7.19595e-05
8.04378e-05
8.84277e-07
0.000200785
0.000798247
0.000568003
0.000390981
0.00109501
0.00369565
0.0749317
0.000994602
0.000997277
0.00099591
0.000990887
0.000980474
0.000964175
0.000942535
0.000915047
0.000882214
0.000844919
0.000803544
0.000759017
0.000712278
0.000664071
0.000615234
0.000566771
0.000517297
0.000463717
0.000409079
0.000358118
0.000311641
0.000275997
0.000222578
0.000147584
7.25674e-05
2.55361e-08
4.54773e-06
2.45779e-06
9.66757e-08
0
0
0.00394812
0.0290597
0.0190283
0.0690303
0.415695
2.38325
5.39436
7.64503
0.000986829
0.00097583
0.000959213
0.00093407
0.000900957
0.000861491
0.000818355
0.000768708
0.000712272
0.000651673
0.000589139
0.000527266
0.000468078
0.000412858
0.000362743
0.000318502
0.000280337
0.000248039
0.00022118
0.000199002
0.000180634
0.000164969
0.000150764
0.000136233
0.000120592
0.000105345
9.1924e-05
8.06623e-05
7.12454e-05
6.33658e-05
5.63969e-05
4.90985e-05
3.83114e-05
1.75841e-05
9.57702e-07
4.62178e-05
0.000188943
0.000863753
0.00837254
0.000806398
0.000809334
0.000809492
0.000806647
0.000799933
0.000788633
0.000772909
0.000752443
0.000727378
0.000698345
0.000665816
0.000630569
0.000593606
0.000555739
0.000518007
0.000481249
0.00044658
0.000415599
0.000386704
0.00035745
0.000327125
0.000297649
0.000273241
0.00024253
0.000206614
0.000153759
9.64864e-05
4.57282e-05
1.4856e-06
3.00307e-06
1.19398e-07
0
0
0.00299094
0.000120345
0.042935
0.24394
2.55374
6.07243
0.000799501
0.000790611
0.000777878
0.000758267
0.000733486
0.000705102
0.000673556
0.000637137
0.000596187
0.000552105
0.000506041
0.000459465
0.000413666
0.000369564
0.000328084
0.000290018
0.000255812
0.000225689
0.000199684
0.000177516
0.000158753
0.000142717
0.000128513
0.000114824
0.000100834
8.73218e-05
7.53955e-05
6.54705e-05
5.73632e-05
5.09791e-05
4.64485e-05
4.36228e-05
4.15047e-05
3.59327e-05
2.37668e-05
1.30267e-05
1.49588e-06
1.05029e-07
0.000295197
0.000665309
0.000669638
0.000672093
0.000672521
0.000670464
0.000665231
0.000656958
0.000645241
0.000630021
0.000611629
0.000590076
0.000565763
0.000539158
0.000510624
0.000480694
0.000449833
0.000418647
0.000386515
0.000352861
0.000319252
0.00028751
0.000258881
0.000234932
0.000216107
0.000197866
0.000180393
0.000155615
0.00012712
8.98124e-05
5.62158e-05
2.17871e-06
1.80936e-06
0
0
3.01693e-06
0.00946275
0.00867855
0.596418
3.74197
0.000658051
0.000649934
0.000639413
0.000623733
0.000604801
0.000583738
0.000560078
0.000532843
0.000502628
0.000470116
0.000435841
0.000400778
0.000365777
0.000331487
0.000298628
0.00026793
0.000239848
0.000214719
0.000192669
0.000173557
0.000157038
0.000142562
0.000129379
0.000116482
0.000103275
9.03475e-05
7.85664e-05
6.82338e-05
5.91514e-05
5.11415e-05
4.41644e-05
3.80355e-05
3.26813e-05
2.80947e-05
2.49454e-05
2.19017e-05
1.51886e-05
1.56415e-06
2.3739e-05
0.000553269
0.000557744
0.000560934
0.000562604
0.000562565
0.000560187
0.000555479
0.00054807
0.000537847
0.000524886
0.00050917
0.000490901
0.00047038
0.000447909
0.000423947
0.000398962
0.000373316
0.000347699
0.000322741
0.000298365
0.00027446
0.000251246
0.000229298
0.000209214
0.000189879
0.000171309
0.000153368
0.000137191
0.00012211
0.000108036
7.98708e-05
3.63705e-05
3.58512e-06
2.94148e-07
0
0
0.00422761
0.0859356
1.6833
0.000546756
0.000539919
0.000531441
0.000518985
0.000504321
0.000488177
0.00047002
0.000449326
0.000426669
0.000402371
0.000376666
0.000350114
0.000323242
0.000296449
0.000270214
0.000245076
0.000221473
0.000199726
0.000180052
0.000162487
0.000146891
0.000132929
0.000120087
0.000107683
9.52842e-05
8.32413e-05
7.22448e-05
6.26196e-05
5.42711e-05
4.70558e-05
4.09721e-05
3.60916e-05
3.23187e-05
2.95814e-05
2.78949e-05
2.78485e-05
2.91142e-05
2.85369e-05
1.05213e-06
0.000464602
0.000468971
0.000472569
0.000475092
0.000476446
0.00047619
0.000474237
0.000470279
0.000464186
0.000455942
0.000445432
0.000432739
0.00041801
0.000401394
0.000383152
0.000363554
0.000342916
0.000321606
0.00029943
0.000276689
0.000254262
0.000232964
0.000213322
0.000195225
0.000177658
0.000159711
0.000142046
0.000126258
0.000114122
0.00010489
0.000100398
8.72957e-05
6.16349e-05
6.08852e-06
6.06025e-07
0
4.45321e-07
0.000642303
0.555905
0.000458871
0.000453124
0.00044616
0.000436103
0.000424542
0.00041189
0.000397682
0.000381707
0.00036445
0.000346029
0.000326545
0.00030633
0.000285662
0.000264758
0.00024396
0.000223663
0.000204206
0.000185918
0.000169014
0.000153605
0.000139651
0.000126935
0.000115088
0.000103639
9.22566e-05
8.11833e-05
7.0951e-05
6.18368e-05
5.3772e-05
4.66224e-05
4.03498e-05
3.4929e-05
3.03044e-05
2.65829e-05
2.37255e-05
2.2914e-05
2.19593e-05
3.49011e-05
1.4134e-05
0.000393283
0.000397288
0.000400872
0.000403696
0.000405708
0.000406596
0.000406202
0.000404335
0.000400794
0.000395543
0.000388427
0.000379447
0.00036865
0.000356095
0.000341952
0.000326433
0.000309739
0.000292211
0.00027411
0.000255737
0.000237389
0.000219455
0.000202262
0.000185858
0.000169701
0.000153124
0.000136415
0.000120828
0.000107804
9.73648e-05
9.09021e-05
8.68608e-05
8.39545e-05
7.04056e-05
1.01194e-05
1.70287e-07
0
0.00253448
0.175294
0.000388393
0.000383571
0.000377795
0.000369555
0.000360308
0.000350206
0.0003389
0.0003264
0.000313064
0.000298938
0.000284016
0.000268501
0.00025254
0.000236232
0.000219759
0.000203393
0.000187384
0.000171986
0.000157427
0.000143834
0.000131223
0.000119494
0.00010842
9.76939e-05
8.71072e-05
7.6838e-05
6.72876e-05
5.87165e-05
5.11133e-05
4.43959e-05
3.8548e-05
3.3611e-05
2.95606e-05
2.64502e-05
2.41863e-05
2.36239e-05
2.29733e-05
3.07502e-05
3.66201e-05
0.000335413
0.000339014
0.000342423
0.000345287
0.000347633
0.000349185
0.000349818
0.000349341
0.000347599
0.000344528
0.000339969
0.000333877
0.000326239
0.000317063
0.000306422
0.000294435
0.000281251
0.000267113
0.00025219
0.000236548
0.000220565
0.000204811
0.000189608
0.000174994
0.000160551
0.000145783
0.000130841
0.000116661
0.00010428
9.39564e-05
8.55949e-05
7.97785e-05
7.57487e-05
8.08814e-05
7.08635e-05
2.03894e-06
1.47463e-09
0.00107162
0.0687244
0.000331226
0.00032707
0.000322187
0.000315349
0.000307871
0.000299689
0.000290596
0.000280715
0.000270286
0.000259314
0.000247783
0.000235794
0.000223413
0.000210644
0.00019761
0.000184468
0.000171376
0.000158538
0.000146129
0.000134302
0.000123118
0.000112537
0.00010241
9.25483e-05
8.28505e-05
7.344e-05
6.46253e-05
5.66298e-05
4.94705e-05
4.30877e-05
3.74637e-05
3.26099e-05
2.85036e-05
2.52209e-05
2.27524e-05
2.18095e-05
2.14232e-05
2.62249e-05
3.95541e-05
0.000287865
0.000291084
0.000294251
0.00029702
0.000299456
0.000301328
0.000302545
0.000302934
0.000302351
0.000300734
0.000297931
0.00029388
0.000288534
0.000281848
0.000273858
0.000264624
0.000254238
0.000242842
0.000230668
0.000217802
0.000204473
0.000191096
0.000177904
0.000164953
0.000152003
0.000138745
0.000125326
0.000112505
0.000101126
9.15119e-05
8.33421e-05
7.67182e-05
7.11051e-05
6.89124e-05
7.90292e-05
5.40212e-05
4.3853e-08
0.000511335
0.0296908
0.000284221
0.000280549
0.00027635
0.000270626
0.000264518
0.00025784
0.00025048
0.0002426
0.000234371
0.000225782
0.000216799
0.000207464
0.000197803
0.000187795
0.00017746
0.000166906
0.000156229
0.000145571
0.000135065
0.000124837
0.000114966
0.00010545
9.62156e-05
8.71699e-05
7.82739e-05
6.96355e-05
6.1489e-05
5.40326e-05
4.73092e-05
4.12891e-05
3.59695e-05
3.13747e-05
2.75161e-05
2.44485e-05
2.21555e-05
2.11968e-05
2.08469e-05
2.4332e-05
3.62935e-05
0.000248348
0.00025124
0.00025416
0.000256784
0.000259201
0.000261231
0.000262772
0.000263693
0.000263878
0.000263251
0.000261694
0.000259121
0.00025549
0.000250742
0.000244861
0.000237862
0.000229792
0.00022074
0.000210908
0.000200309
0.000189116
0.000177693
0.000166265
0.000154897
0.000143421
0.000131627
0.00011965
0.000108104
9.77155e-05
8.88214e-05
8.128e-05
7.48629e-05
6.97183e-05
6.43773e-05
6.53518e-05
8.57534e-05
2.44317e-06
0.000159219
0.010831
0.000245082
0.000241782
0.000238135
0.00023333
0.000228286
0.000222814
0.000216827
0.000210518
0.000203979
0.000197207
0.00019016
0.000182858
0.000175291
0.000167409
0.000159216
0.00015075
0.00014206
0.000133245
0.000124402
0.000115627
0.000106986
9.85116e-05
9.01787e-05
8.19638e-05
7.387e-05
6.59895e-05
5.85113e-05
5.16036e-05
4.53232e-05
3.96617e-05
3.46235e-05
3.02299e-05
2.64927e-05
2.34674e-05
2.11538e-05
2.00764e-05
1.95947e-05
2.25162e-05
3.26548e-05
0.000215143
0.000217762
0.000220457
0.000222915
0.000225259
0.000227342
0.000229044
0.000230286
0.000230964
0.000231004
0.000230311
0.000228809
0.000226433
0.000223124
0.000218842
0.000213585
0.000207375
0.000200244
0.000192359
0.000183734
0.000174478
0.000164853
0.000155068
0.00014518
0.000135084
0.000124647
0.000113992
0.00010362
9.41534e-05
8.59208e-05
7.89186e-05
7.29204e-05
6.81152e-05
6.4136e-05
5.78735e-05
7.74516e-05
3.28744e-05
1.66109e-05
0.00284297
0.000212162
0.000209173
0.000205996
0.000201952
0.000197751
0.000193251
0.00018837
0.00018329
0.000178075
0.000172709
0.000167159
0.000161414
0.00015546
0.000149242
0.000142732
0.000135945
0.000128892
0.000121622
0.000114203
0.000106707
9.91989e-05
9.17145e-05
8.42547e-05
7.68239e-05
6.94745e-05
6.2302e-05
5.54542e-05
4.90718e-05
4.32217e-05
3.79136e-05
3.31613e-05
2.89943e-05
2.54333e-05
2.25295e-05
2.02815e-05
1.91505e-05
1.85626e-05
2.08672e-05
2.94559e-05
0.00018699
0.000189386
0.000191868
0.000194165
0.000196419
0.000198486
0.000200269
0.0002017
0.000202693
0.000203187
0.000203096
0.000202348
0.000200894
0.000198664
0.000195629
0.000191753
0.000187036
0.000181489
0.00017522
0.00016826
0.000160654
0.000152585
0.00014426
0.000135734
0.000126926
0.000117754
0.000108334
9.90724e-05
9.04936e-05
8.29133e-05
7.63838e-05
7.08236e-05
6.60699e-05
6.33057e-05
5.69707e-05
6.27557e-05
6.80758e-05
8.95689e-07
0.000446251
0.000184276
0.000181571
0.000178811
0.000175399
0.000171873
0.00016814
0.000164142
0.000160031
0.00015585
0.000151583
0.000147193
0.000142666
0.000137974
0.000133054
0.000127878
0.000122427
0.000116705
0.000110725
0.000104528
9.81626e-05
9.16762e-05
8.5107e-05
7.84704e-05
7.18034e-05
6.51741e-05
5.86768e-05
5.24318e-05
4.65613e-05
4.11354e-05
3.61768e-05
3.17068e-05
2.77587e-05
2.43534e-05
2.15389e-05
1.93205e-05
1.81111e-05
1.74226e-05
1.91975e-05
2.65271e-05
0.000162978
0.000165171
0.000167448
0.000169596
0.000171739
0.000173755
0.000175556
0.00017709
0.000178274
0.000179064
0.000179389
0.000179183
0.000178411
0.000177001
0.000174912
0.000172109
0.000168574
0.000164308
0.000159365
0.000153805
0.000147616
0.000140919
0.000133901
0.000126616
0.000119001
0.000110999
0.00010272
9.44963e-05
8.67657e-05
7.98318e-05
7.37629e-05
6.86066e-05
6.40366e-05
6.12784e-05
5.75772e-05
5.3768e-05
7.87988e-05
1.2356e-06
6.50897e-06
0.000160536
0.000158117
0.000155715
0.000152825
0.000149838
0.000146712
0.000143413
0.000140067
0.000136697
0.000133287
0.000129804
0.000126222
0.000122511
0.000118617
0.000114495
0.000110125
0.000105485
0.00010058
9.54214e-05
9.0041e-05
8.44701e-05
7.87377e-05
7.28693e-05
6.69183e-05
6.09659e-05
5.50977e-05
4.94216e-05
4.40415e-05
3.90258e-05
3.44084e-05
3.02162e-05
2.64867e-05
2.32437e-05
2.05321e-05
1.83603e-05
1.70896e-05
1.63116e-05
1.76085e-05
2.38046e-05
0.000142422
0.000144414
0.000146493
0.000148495
0.00015051
0.000152451
0.000154225
0.000155796
0.000157094
0.00015808
0.00015869
0.000158878
0.000158597
0.000157792
0.000156424
0.000154454
0.00015186
0.000148626
0.000144773
0.000140372
0.000135382
0.000129869
0.000124001
0.000117829
0.000111301
0.000104377
9.71518e-05
8.98972e-05
8.29771e-05
7.6677e-05
7.10789e-05
6.62802e-05
6.20587e-05
5.89431e-05
5.7023e-05
5.09772e-05
7.08752e-05
1.22002e-05
9.71715e-07
0.000140253
0.000138115
0.00013602
0.000133551
0.000131005
0.000128356
0.000125611
0.000122863
0.000120127
0.000117386
0.00011461
0.000111768
0.000108828
0.000105737
0.000102453
9.89457e-05
9.51875e-05
9.11697e-05
8.68893e-05
8.23572e-05
7.75973e-05
7.26323e-05
6.74826e-05
6.21977e-05
5.68674e-05
5.15897e-05
4.64514e-05
4.15401e-05
3.69215e-05
3.26364e-05
2.87164e-05
2.52012e-05
2.21162e-05
1.95027e-05
1.73723e-05
1.60418e-05
1.51809e-05
1.60787e-05
2.12714e-05
0.000124776
0.000126564
0.000128461
0.000130305
0.00013219
0.000134028
0.000135748
0.000137308
0.000138658
0.000139759
0.000140558
0.000141012
0.000141088
0.000140733
0.000139917
0.000138596
0.000136742
0.000134339
0.000131383
0.000127936
0.000123947
0.000119451
0.000114587
0.000109402
0.000103853
9.79056e-05
9.16426e-05
8.52857e-05
7.91346e-05
7.34489e-05
6.83283e-05
6.38671e-05
6.00171e-05
5.67693e-05
5.52442e-05
5.08268e-05
5.80227e-05
4.09293e-05
1.18893e-05
0.000122871
0.000120991
0.000119155
0.000117033
0.000114843
0.00011258
0.000110272
0.000107995
0.000105754
0.000103535
0.00010131
9.90424e-05
9.67049e-05
9.4246e-05
9.16239e-05
8.88081e-05
8.57661e-05
8.24785e-05
7.89357e-05
7.51376e-05
7.10889e-05
6.68033e-05
6.23013e-05
5.76373e-05
5.28977e-05
4.81702e-05
4.35338e-05
3.90649e-05
3.48261e-05
3.08612e-05
2.72054e-05
2.38997e-05
2.09713e-05
1.84574e-05
1.63721e-05
1.49912e-05
1.40556e-05
1.46132e-05
1.89202e-05
0.000109586
0.000111182
0.0001129
0.000114589
0.000116332
0.000118056
0.000119691
0.000121211
0.000122564
0.00012372
0.000124636
0.000125274
0.000125606
0.000125589
0.000125186
0.000124365
0.000123093
0.000121352
0.000119119
0.000116455
0.000113304
0.00010968
0.000105683
0.000101363
9.66834e-05
9.16153e-05
8.62238e-05
8.06899e-05
7.52595e-05
7.01617e-05
6.55123e-05
6.13894e-05
5.78595e-05
5.47471e-05
5.29618e-05
5.06265e-05
5.00505e-05
5.27224e-05
3.1741e-05
0.000107922
0.000106267
0.000104651
0.000102816
0.000100919
9.89727e-05
9.70157e-05
9.51085e-05
9.32557e-05
9.14434e-05
8.96455e-05
8.78278e-05
8.59584e-05
8.39969e-05
8.18987e-05
7.96337e-05
7.7171e-05
7.44853e-05
7.1557e-05
6.838e-05
6.49528e-05
6.12767e-05
5.73635e-05
5.32662e-05
4.90682e-05
4.4848e-05
4.0679e-05
3.66275e-05
3.27512e-05
2.90945e-05
2.56949e-05
2.25931e-05
1.9818e-05
1.7403e-05
1.53626e-05
1.39376e-05
1.29348e-05
1.32137e-05
1.6757e-05
9.64681e-05
9.78909e-05
9.94383e-05
0.000100974
0.000102574
0.000104174
0.000105708
0.000107161
0.000108485
0.000109653
0.00011063
0.000111384
0.00011189
0.000112112
0.000112018
0.000111578
0.000110759
0.000109542
0.000107901
0.000105881
0.000103429
0.000100545
9.72942e-05
9.37278e-05
8.98172e-05
8.55308e-05
8.09216e-05
7.61354e-05
7.13741e-05
6.68348e-05
6.26409e-05
5.88619e-05
5.56026e-05
5.27447e-05
5.06447e-05
4.95508e-05
4.63543e-05
5.07545e-05
4.4606e-05
9.50119e-05
9.35494e-05
9.21192e-05
9.05245e-05
8.8872e-05
8.71904e-05
8.55196e-05
8.39109e-05
8.23659e-05
8.08728e-05
7.94054e-05
7.79338e-05
7.6431e-05
7.48574e-05
7.31735e-05
7.13475e-05
6.935e-05
6.71559e-05
6.47416e-05
6.20922e-05
5.91968e-05
5.60562e-05
5.26747e-05
4.90935e-05
4.53861e-05
4.16327e-05
3.78985e-05
3.42393e-05
3.07065e-05
2.73445e-05
2.41913e-05
2.12867e-05
1.86613e-05
1.63449e-05
1.43508e-05
1.28897e-05
1.18266e-05
1.1876e-05
1.47669e-05
8.50937e-05
8.63623e-05
8.77573e-05
8.91463e-05
9.06086e-05
9.20808e-05
9.35079e-05
9.48783e-05
9.61485e-05
9.72966e-05
9.82929e-05
9.91104e-05
9.97294e-05
0.000100117
0.00010025
0.000100097
9.96296e-05
9.88285e-05
9.7664e-05
9.61623e-05
9.42896e-05
9.20274e-05
8.94151e-05
8.65008e-05
8.32646e-05
7.96708e-05
7.57589e-05
7.16477e-05
6.75017e-05
6.34872e-05
5.9728e-05
5.62927e-05
5.32813e-05
5.06875e-05
4.84357e-05
4.7756e-05
4.45567e-05
4.59031e-05
4.78289e-05
8.38134e-05
8.25126e-05
8.12421e-05
7.98489e-05
7.84059e-05
7.69495e-05
7.5517e-05
7.41504e-05
7.28514e-05
7.16087e-05
7.04041e-05
6.92047e-05
6.79863e-05
6.67152e-05
6.53549e-05
6.38787e-05
6.22561e-05
6.04599e-05
5.8468e-05
5.62616e-05
5.3826e-05
5.11506e-05
4.82362e-05
4.51176e-05
4.18618e-05
3.85384e-05
3.52046e-05
3.19102e-05
2.87005e-05
2.56181e-05
2.27009e-05
1.99867e-05
1.75056e-05
1.52868e-05
1.33401e-05
1.18509e-05
1.07364e-05
1.06029e-05
1.29462e-05
7.51908e-05
7.6327e-05
7.75825e-05
7.88386e-05
8.01712e-05
8.15189e-05
8.28382e-05
8.41159e-05
8.53195e-05
8.64261e-05
8.74142e-05
8.82587e-05
8.89448e-05
8.94436e-05
8.97351e-05
8.97929e-05
8.95922e-05
8.91114e-05
8.83254e-05
8.72409e-05
8.58472e-05
8.41043e-05
8.20344e-05
7.96837e-05
7.70343e-05
7.40485e-05
7.07544e-05
6.72487e-05
6.36637e-05
6.01389e-05
5.67898e-05
5.36886e-05
5.09165e-05
4.8557e-05
4.63186e-05
4.55828e-05
4.31896e-05
4.18723e-05
4.57707e-05
7.4054e-05
7.2895e-05
7.17645e-05
7.05389e-05
6.92773e-05
6.80155e-05
6.67814e-05
6.56159e-05
6.45173e-05
6.34762e-05
6.24764e-05
6.14902e-05
6.04944e-05
5.94622e-05
5.83591e-05
5.7158e-05
5.58343e-05
5.43619e-05
5.2717e-05
5.08797e-05
4.88331e-05
4.65614e-05
4.40594e-05
4.1355e-05
3.85054e-05
3.55728e-05
3.26049e-05
2.96481e-05
2.67413e-05
2.39237e-05
2.1232e-05
1.87011e-05
1.63584e-05
1.42355e-05
1.2338e-05
1.08287e-05
9.66993e-06
9.39372e-06
1.12891e-05
6.65361e-05
6.75577e-05
6.86894e-05
6.98276e-05
7.10373e-05
7.22697e-05
7.34826e-05
7.46682e-05
7.57949e-05
7.68477e-05
7.78054e-05
7.86503e-05
7.93662e-05
7.99345e-05
8.03352e-05
8.0545e-05
8.05436e-05
8.03082e-05
7.98193e-05
7.90697e-05
7.806e-05
7.67472e-05
7.51356e-05
7.32673e-05
7.11227e-05
6.8667e-05
6.59183e-05
6.29533e-05
5.98764e-05
5.6805e-05
5.38416e-05
5.10616e-05
4.85245e-05
4.63665e-05
4.42404e-05
4.32817e-05
4.16587e-05
3.90105e-05
4.2001e-05
6.55161e-05
6.44855e-05
6.34782e-05
6.23961e-05
6.12929e-05
6.01967e-05
5.91303e-05
5.81306e-05
5.71961e-05
5.63181e-05
5.54844e-05
5.46684e-05
5.38497e-05
5.30033e-05
5.21004e-05
5.11193e-05
5.00357e-05
4.88249e-05
4.74643e-05
4.59345e-05
4.42164e-05
4.22912e-05
4.01489e-05
3.78097e-05
3.53222e-05
3.27399e-05
3.01081e-05
2.74624e-05
2.48377e-05
2.22697e-05
1.97917e-05
1.74363e-05
1.52301e-05
1.32023e-05
1.13558e-05
9.83336e-06
8.63717e-06
8.24715e-06
9.78084e-06
5.89476e-05
5.98695e-05
6.08908e-05
6.19241e-05
6.30229e-05
6.4148e-05
6.52601e-05
6.63546e-05
6.74048e-05
6.83952e-05
6.93116e-05
7.01371e-05
7.08599e-05
7.1465e-05
7.19337e-05
7.225e-05
7.23931e-05
7.23433e-05
7.2083e-05
7.15988e-05
7.08974e-05
6.99323e-05
6.87011e-05
6.72373e-05
6.55257e-05
6.35299e-05
6.12596e-05
5.87737e-05
5.61549e-05
5.34987e-05
5.08962e-05
4.84206e-05
4.61153e-05
4.41356e-05
4.21658e-05
4.09897e-05
3.98405e-05
3.68775e-05
3.82033e-05
5.80292e-05
5.71128e-05
5.62166e-05
5.52583e-05
5.4291e-05
5.33348e-05
5.2411e-05
5.15508e-05
5.07516e-05
5.00074e-05
4.93067e-05
4.86253e-05
4.79458e-05
4.72491e-05
4.65077e-05
4.57006e-05
4.48082e-05
4.38084e-05
4.26808e-05
4.14041e-05
3.99611e-05
3.83308e-05
3.65005e-05
3.44829e-05
3.2319e-05
3.00517e-05
2.77233e-05
2.53619e-05
2.29983e-05
2.06632e-05
1.83872e-05
1.61995e-05
1.41271e-05
1.2193e-05
1.03997e-05
8.87095e-06
7.64287e-06
7.1652e-06
8.41599e-06
5.22774e-05
5.31122e-05
5.40348e-05
5.49716e-05
5.59707e-05
5.69963e-05
5.80149e-05
5.90216e-05
5.99961e-05
6.09219e-05
6.179e-05
6.25841e-05
6.32975e-05
6.39145e-05
6.44234e-05
6.48098e-05
6.50554e-05
6.51434e-05
6.50566e-05
6.47814e-05
6.43232e-05
6.36406e-05
6.27222e-05
6.15979e-05
6.02512e-05
5.86476e-05
5.67903e-05
5.47242e-05
5.25143e-05
5.02357e-05
4.79665e-05
4.57764e-05
4.36986e-05
4.18775e-05
4.00784e-05
3.87532e-05
3.77953e-05
3.50568e-05
3.49116e-05
5.14521e-05
5.06382e-05
4.98413e-05
4.89906e-05
4.81391e-05
4.73018e-05
4.64981e-05
4.57536e-05
4.50671e-05
4.44323e-05
4.38403e-05
4.32679e-05
4.27002e-05
4.21215e-05
4.15086e-05
4.08417e-05
4.01033e-05
3.92736e-05
3.8336e-05
3.72702e-05
3.60575e-05
3.46762e-05
3.3112e-05
3.13736e-05
2.94937e-05
2.75094e-05
2.54536e-05
2.33519e-05
2.12288e-05
1.91104e-05
1.70251e-05
1.49976e-05
1.30535e-05
1.12121e-05
9.4745e-06
7.94695e-06
6.69231e-06
6.1476e-06
7.18364e-06
4.64059e-05
4.71611e-05
4.79952e-05
4.88437e-05
4.97516e-05
5.06857e-05
5.16162e-05
5.25418e-05
5.34417e-05
5.43038e-05
5.51189e-05
5.58751e-05
5.65664e-05
5.71808e-05
5.77089e-05
5.81376e-05
5.84522e-05
5.86395e-05
5.86826e-05
5.85685e-05
5.83001e-05
5.78424e-05
5.71803e-05
5.63356e-05
5.52948e-05
5.40242e-05
5.25224e-05
5.08217e-05
4.89721e-05
4.70333e-05
4.50689e-05
4.31431e-05
4.12837e-05
3.96131e-05
3.79754e-05
3.6584e-05
3.56348e-05
3.32984e-05
3.21799e-05
4.56666e-05
4.49451e-05
4.42362e-05
4.3479e-05
4.27263e-05
4.19897e-05
4.12869e-05
4.064e-05
4.00467e-05
3.95013e-05
3.89968e-05
3.85126e-05
3.80359e-05
3.75527e-05
3.70415e-05
3.64865e-05
3.58726e-05
3.51832e-05
3.44003e-05
3.35072e-05
3.24864e-05
3.13166e-05
2.99809e-05
2.84855e-05
2.68549e-05
2.51203e-05
2.33087e-05
2.14412e-05
1.95375e-05
1.76202e-05
1.5713e-05
1.38378e-05
1.20173e-05
1.02673e-05
8.58762e-06
7.06791e-06
5.79113e-06
5.19521e-06
6.07786e-06
4.12323e-05
4.19131e-05
4.26669e-05
4.34341e-05
4.42579e-05
4.51083e-05
4.59566e-05
4.68057e-05
4.76336e-05
4.84332e-05
4.91944e-05
4.99083e-05
5.05691e-05
5.11697e-05
5.17002e-05
5.21509e-05
5.2511e-05
5.27663e-05
5.29054e-05
5.29126e-05
5.27926e-05
5.25121e-05
5.20558e-05
5.14384e-05
5.06504e-05
4.96608e-05
4.84615e-05
4.70768e-05
4.5543e-05
4.39062e-05
4.22188e-05
4.05367e-05
3.88812e-05
3.73557e-05
3.58649e-05
3.44774e-05
3.34505e-05
3.14917e-05
2.98879e-05
4.05709e-05
3.9932e-05
3.93014e-05
3.86262e-05
3.79582e-05
3.7308e-05
3.66896e-05
3.6124e-05
3.56077e-05
3.51358e-05
3.47025e-05
3.42895e-05
3.38854e-05
3.34794e-05
3.3051e-05
3.25865e-05
3.20732e-05
3.14963e-05
3.08408e-05
3.00907e-05
2.92292e-05
2.82375e-05
2.7097e-05
2.58107e-05
2.43979e-05
2.28831e-05
2.12888e-05
1.96325e-05
1.7929e-05
1.61972e-05
1.44565e-05
1.27259e-05
1.10246e-05
9.36524e-06
7.74601e-06
6.24044e-06
4.94465e-06
4.30809e-06
5.09042e-06
3.66678e-05
3.72808e-05
3.79597e-05
3.86532e-05
3.9399e-05
4.01708e-05
4.09439e-05
4.172e-05
4.24801e-05
4.32178e-05
4.39255e-05
4.45943e-05
4.52217e-05
4.58003e-05
4.63227e-05
4.67816e-05
4.71671e-05
4.74679e-05
4.76744e-05
4.77715e-05
4.77634e-05
4.76212e-05
4.73271e-05
4.68948e-05
4.63133e-05
4.55552e-05
4.46109e-05
4.34967e-05
4.22376e-05
4.08682e-05
3.94291e-05
3.79691e-05
3.65066e-05
3.51165e-05
3.37592e-05
3.24197e-05
3.13014e-05
2.96159e-05
2.78641e-05
3.60773e-05
3.55118e-05
3.49501e-05
3.43467e-05
3.37523e-05
3.31765e-05
3.26299e-05
3.21324e-05
3.16799e-05
3.12688e-05
3.08937e-05
3.05382e-05
3.01926e-05
2.98482e-05
2.94866e-05
2.90953e-05
2.86641e-05
2.81796e-05
2.76282e-05
2.6996e-05
2.62684e-05
2.54259e-05
2.44508e-05
2.33442e-05
2.21198e-05
2.07988e-05
1.93976e-05
1.79307e-05
1.6409e-05
1.48475e-05
1.32621e-05
1.16681e-05
1.00819e-05
8.51233e-06
6.95634e-06
5.47131e-06
4.15875e-06
3.48682e-06
4.21573e-06
3.26359e-05
3.31874e-05
3.37976e-05
3.44231e-05
3.50977e-05
3.57965e-05
3.64997e-05
3.72072e-05
3.79035e-05
3.85817e-05
3.92368e-05
3.98602e-05
4.04505e-05
4.10012e-05
4.15077e-05
4.19624e-05
4.23594e-05
4.26885e-05
4.29408e-05
4.31022e-05
4.31776e-05
4.31407e-05
4.29745e-05
4.26882e-05
4.22738e-05
4.17064e-05
4.09751e-05
4.00891e-05
3.90659e-05
3.79305e-05
3.67133e-05
3.54531e-05
3.41686e-05
3.29112e-05
3.16695e-05
3.04073e-05
2.92253e-05
2.7707e-05
2.59769e-05
3.21091e-05
3.16072e-05
3.11067e-05
3.05668e-05
3.00376e-05
2.9526e-05
2.90412e-05
2.86012e-05
2.82023e-05
2.7841e-05
2.75132e-05
2.72052e-05
2.69078e-05
2.66123e-05
2.63042e-05
2.5972e-05
2.56079e-05
2.51991e-05
2.47333e-05
2.41988e-05
2.35825e-05
2.28651e-05
2.20306e-05
2.10783e-05
2.00184e-05
1.88661e-05
1.76358e-05
1.63378e-05
1.49806e-05
1.3575e-05
1.21339e-05
1.06693e-05
9.19392e-06
7.71448e-06
6.22518e-06
4.76758e-06
3.43967e-06
2.73172e-06
3.45014e-06
2.90697e-05
2.9565e-05
3.01134e-05
3.06765e-05
3.12856e-05
3.19181e-05
3.25556e-05
3.31995e-05
3.38354e-05
3.44569e-05
3.50603e-05
3.56382e-05
3.61895e-05
3.67094e-05
3.71939e-05
3.76382e-05
3.80356e-05
3.83781e-05
3.86586e-05
3.88652e-05
3.90007e-05
3.90435e-05
3.89763e-05
3.88047e-05
3.8523e-05
3.811e-05
3.75541e-05
3.6859e-05
3.60364e-05
3.51034e-05
3.40818e-05
3.3002e-05
3.18791e-05
3.07491e-05
2.96115e-05
2.84396e-05
2.72343e-05
2.58066e-05
2.41606e-05
2.85987e-05
2.81517e-05
2.77056e-05
2.72231e-05
2.67514e-05
2.62961e-05
2.58652e-05
2.54743e-05
2.51208e-05
2.48012e-05
2.45131e-05
2.42428e-05
2.39838e-05
2.37292e-05
2.34648e-05
2.3181e-05
2.28709e-05
2.25236e-05
2.21287e-05
2.16755e-05
2.11516e-05
2.05399e-05
1.98245e-05
1.90038e-05
1.80861e-05
1.70815e-05
1.60022e-05
1.48551e-05
1.3646e-05
1.23831e-05
1.10759e-05
9.7341e-06
8.36605e-06
6.97702e-06
5.55846e-06
4.13617e-06
2.79399e-06
2.04267e-06
2.79228e-06
2.59099e-05
2.63552e-05
2.68474e-05
2.73541e-05
2.79034e-05
2.84749e-05
2.90522e-05
2.96366e-05
3.02159e-05
3.07837e-05
3.13375e-05
3.18707e-05
3.23827e-05
3.287e-05
3.3329e-05
3.3756e-05
3.41456e-05
3.44913e-05
3.47876e-05
3.50244e-05
3.52011e-05
3.53029e-05
3.53094e-05
3.52261e-05
3.50491e-05
3.47602e-05
3.43467e-05
3.381e-05
3.31561e-05
3.23961e-05
3.15451e-05
3.06249e-05
2.96492e-05
2.86398e-05
2.75989e-05
2.65153e-05
2.53309e-05
2.39594e-05
2.24005e-05
2.54877e-05
2.50891e-05
2.46911e-05
2.42602e-05
2.38398e-05
2.34344e-05
2.30507e-05
2.27028e-05
2.23882e-05
2.2104e-05
2.18484e-05
2.16101e-05
2.13828e-05
2.11609e-05
2.09318e-05
2.06878e-05
2.04223e-05
2.01259e-05
1.97895e-05
1.94038e-05
1.89571e-05
1.84341e-05
1.78199e-05
1.71123e-05
1.63168e-05
1.54413e-05
1.44945e-05
1.34817e-05
1.24063e-05
1.12741e-05
1.00914e-05
8.86541e-06
7.60163e-06
6.30366e-06
4.96118e-06
3.58442e-06
2.2326e-06
1.41871e-06
2.24482e-06
2.31059e-05
2.35063e-05
2.3948e-05
2.4404e-05
2.48991e-05
2.5415e-05
2.59372e-05
2.64672e-05
2.69935e-05
2.75111e-05
2.80177e-05
2.85077e-05
2.89807e-05
2.94342e-05
2.98652e-05
3.02711e-05