/*--------------------------------*- C++ -*----------------------------------*\
| =========                 |                                                 |
| \\      /  F ield         | OpenFOAM: The Open Source CFD Toolbox           |
|  \\    /   O peration     | Version:  2312                                  |
|   \\  /    A nd           | Website:  www.openfoam.com                      |
|    \\/     M anipulation  |                                                 |
\*---------------------------------------------------------------------------*/
FoamFile
{
    version     2.0;
    format      ascii;
    arch        "LSB;label=32;scalar=64";
    class       volVectorField;
    location    "100";
    object      U;
}
// * * * * * * * * * * * * * * * * * * * * * * * * * * * * * * * * * * * * * //

dimensions      [0 1 -1 0 0 0 0];

internalField   nonuniform List<vector> 
10720
(
(0.969182 22.7717 -6.32463e-18)
(2.39582 25.0808 5.71356e-18)
(4.24715 27.3507 0)
(6.43144 29.2179 -2.39026e-16)
(8.89613 30.7386 2.68202e-16)
(11.5821 31.8579 2.23574e-16)
(14.3478 32.4761 3.43432e-16)
(17.1006 32.6145 0)
(19.759 32.3219 0)
(22.2403 31.6284 0)
(24.5053 30.6073 1.07484e-16)
(26.5276 29.3314 0)
(28.2869 27.8595 2.12397e-15)
(29.7379 26.1909 0)
(30.8307 24.3232 0)
(31.543 22.2873 0)
(31.8266 20.0783 -3.83326e-15)
(31.6372 17.7254 -5.91526e-15)
(30.8881 15.2348 5.45542e-15)
(29.5078 12.659 0)
(27.3797 10.0431 5.04077e-15)
(24.5033 7.49001 -1.08717e-14)
(21.0081 5.14089 6.16759e-15)
(17.6411 3.19394 -2.10475e-16)
(15.7184 1.72345 0)
(15.4581 0.647938 3.11194e-15)
(16.141 -0.0830064 4.35656e-17)
(17.0912 -0.559505 -1.09033e-15)
(17.9388 -0.912809 -3.63225e-15)
(18.4807 -1.22444 -1.22119e-14)
(18.6552 -1.51848 5.15517e-15)
(18.388 -1.78647 8.91151e-15)
(17.7725 -2.01857 7.36907e-15)
(16.8843 -2.19657 2.43117e-14)
(15.7015 -2.29213 -9.44669e-15)
(14.2116 -2.28695 -6.54423e-17)
(12.0115 -2.09621 1.44288e-17)
(9.68946 -1.78208 -1.06769e-15)
(2.94907 -1.065 1.58411e-14)
(-0.0988538 20.3517 -1.22602e-17)
(-0.88589 17.6689 -3.98143e-17)
(-1.31387 14.6756 1.21118e-16)
(-1.27331 11.2708 -3.21269e-16)
(-0.623487 7.81068 -1.0733e-15)
(0.567155 4.56354 2.01109e-15)
(2.10185 1.78599 9.60028e-15)
(3.8891 -0.732255 2.1938e-15)
(6.03681 -2.95301 0)
(8.32685 -4.63818 0)
(10.5097 -5.74093 1.42067e-15)
(12.4785 -6.37411 5.31974e-16)
(14.212 -6.6655 -9.13237e-16)
(15.71 -6.71801 7.57401e-16)
(16.996 -6.6221 1.26027e-15)
(18.1104 -6.43683 8.15187e-16)
(19.0884 -6.20371 1.02006e-15)
(19.9625 -5.94545 6.69421e-16)
(20.7639 -5.67691 0)
(21.5136 -5.39673 0)
(22.2293 -5.10343 -8.46213e-16)
(22.9207 -4.78497 -3.40875e-17)
(23.5881 -4.42499 4.68007e-16)
(24.1967 -3.9977 -2.4669e-16)
(24.6754 -3.50195 2.95222e-17)
(25.0069 -2.98865 0)
(25.2292 -2.48498 -5.4129e-17)
(25.3828 -1.92603 0)
(25.4802 -1.26373 0)
(25.513 -0.54463 -1.03545e-16)
(25.4555 0.165096 0)
(25.3018 0.821975 4.29578e-16)
(25.0542 1.40678 7.16759e-16)
(24.7209 1.91499 3.01491e-15)
(24.3012 2.35029 -8.15741e-16)
(23.7921 2.72197 2.42196e-18)
(23.0914 3.03253 0)
(22.1451 3.25493 2.60117e-15)
(19.547 3.44694 6.30039e-15)
(6.7337 19.7706 -2.02909e-17)
(8.30414 21.5155 1.35602e-17)
(10.2633 23.1498 0)
(12.5634 24.5664 0)
(15.0914 25.6963 -7.85156e-17)
(17.8494 26.4798 -2.14227e-16)
(20.7353 26.8644 0)
(23.6292 26.8575 0)
(26.4761 26.4616 5.32377e-16)
(29.1929 25.7157 0)
(31.7248 24.6689 2.10424e-15)
(34.0467 23.3671 0)
(36.1296 21.8499 7.88942e-16)
(37.9951 20.2198 -7.74959e-16)
(39.6706 18.53 1.59549e-15)
(41.1542 16.8048 -3.22564e-15)
(42.4144 15.08 3.45944e-15)
(43.4263 13.3899 3.15801e-15)
(44.1649 11.7491 3.08143e-15)
(44.5725 10.1819 1.86956e-16)
(44.5638 8.6888 -3.19244e-15)
(44.0082 7.2553 3.05614e-15)
(42.7792 5.80304 -1.75714e-16)
(40.8294 4.25635 0)
(38.41 2.71279 0)
(35.8745 1.36449 0)
(33.327 0.292986 1.57648e-16)
(30.8454 -0.530212 -3.50915e-17)
(28.5334 -1.17907 2.19837e-15)
(26.511 -1.69993 3.15441e-17)
(24.8173 -2.10655 -2.39061e-17)
(23.4419 -2.41745 -7.70617e-17)
(22.1935 -2.64853 4.70783e-15)
(20.9027 -2.8048 -7.53718e-15)
(19.4403 -2.87663 -3.79179e-17)
(17.7602 -2.84971 -7.6663e-15)
(15.4519 -2.65092 0)
(13.0418 -2.31713 2.60189e-16)
(6.54006 -1.40607 7.40326e-15)
(5.45803 17.9406 2.84343e-17)
(4.39636 15.9376 -8.8059e-17)
(3.554 13.6135 -9.58044e-16)
(3.02251 11.0047 1.21999e-15)
(2.99293 8.22668 0)
(3.51195 5.47935 -2.59552e-15)
(4.50753 2.91887 -1.56555e-15)
(5.85234 0.561393 -7.4407e-15)
(7.52553 -1.41132 1.89798e-15)
(9.39487 -2.87014 -1.41509e-15)
(11.2874 -3.83796 1.82217e-15)
(13.0873 -4.41349 -5.21235e-16)
(14.7444 -4.69493 0)
(16.2344 -4.76383 -3.3542e-16)
(17.5538 -4.70241 6.59907e-17)
(18.7245 -4.55899 -7.25378e-16)
(19.7699 -4.37146 0)
(20.7164 -4.15831 0)
(21.5895 -3.93283 -7.20531e-17)
(22.4131 -3.68739 6.9859e-17)
(23.2028 -3.41639 -7.79279e-16)
(23.9706 -3.09898 -7.87107e-17)
(24.7175 -2.71095 3.31528e-17)
(25.4192 -2.20784 2.86997e-16)
(26.0198 -1.59765 -1.11637e-16)
(26.4922 -0.945768 -3.76829e-17)
(26.8443 -0.281983 0)
(27.0682 0.348005 0)
(27.1593 0.901928 0)
(27.1269 1.36947 9.94315e-18)
(27.0057 1.76499 0)
(26.816 2.1146 0)
(26.5677 2.43691 -1.19111e-15)
(26.2634 2.73924 -9.91407e-16)
(25.895 3.02467 6.75072e-16)
(25.4637 3.29604 -2.23806e-16)
(24.8719 3.55193 -5.53659e-16)
(24.2903 3.78086 -2.08081e-15)
(22.2963 3.87244 -4.3713e-15)
(8.44412 18.256 -5.28647e-18)
(9.5591 19.7877 -5.30671e-17)
(10.9479 21.3074 3.71549e-17)
(12.5753 22.7365 2.10314e-18)
(14.4036 23.9665 -8.9825e-17)
(16.4328 24.9754 3.64677e-16)
(18.5969 25.7181 -2.67988e-16)
(20.8287 26.1539 -3.62197e-16)
(23.0747 26.2777 1.44682e-17)
(25.2779 26.0947 -5.17935e-16)
(27.3857 25.6207 5.08727e-16)
(29.3628 24.8832 -1.35146e-15)
(31.1771 23.9127 -6.60409e-16)
(32.8085 22.7309 0)
(34.2379 21.3655 -1.63472e-15)
(35.4566 19.8491 3.36427e-15)
(36.5143 18.1782 0)
(37.4282 16.3872 -6.49604e-15)
(38.235 14.5081 -3.26261e-15)
(38.9575 12.6019 3.82627e-16)
(39.6587 10.7146 -3.73559e-16)
(40.3573 8.90287 -1.70144e-16)
(41.0102 7.1559 -2.38943e-15)
(41.39 5.42795 1.21699e-15)
(41.2501 3.75865 0)
(40.5998 2.25679 1.12527e-15)
(39.581 0.984565 -1.34307e-16)
(38.2779 -0.0687412 0)
(36.6602 -0.955206 1.75408e-15)
(34.6714 -1.70064 3.23985e-15)
(32.3404 -2.29936 -5.64423e-15)
(29.8447 -2.7469 -4.7636e-15)
(27.4093 -3.05165 -1.00331e-16)
(25.148 -3.22642 -6.28433e-15)
(22.9727 -3.27923 -4.75224e-15)
(20.7552 -3.20835 6.22739e-15)
(18.0673 -2.97047 0)
(15.2883 -2.53791 2.21893e-16)
(9.11229 -1.82019 -1.04697e-14)
(7.56555 16.6641 -3.01065e-17)
(6.82431 14.9533 -9.0685e-17)
(6.26322 12.9617 3.93676e-16)
(5.87663 10.753 0)
(5.81287 8.41942 6.64489e-16)
(6.10311 6.07131 0)
(6.74331 3.8033 4.03117e-15)
(7.71752 1.697 1.67957e-15)
(8.98142 -0.124653 1.39078e-15)
(10.4297 -1.60208 0)
(11.9459 -2.73293 -1.96115e-15)
(13.4408 -3.54897 -4.08419e-16)
(14.8639 -4.09985 1.8544e-15)
(16.1845 -4.43916 0)
(17.3885 -4.61996 -8.32036e-16)
(18.4813 -4.68394 -2.50532e-16)
(19.476 -4.66504 1.00941e-15)
(20.3895 -4.58543 5.14695e-16)
(21.2407 -4.46016 1.35151e-16)
(22.0483 -4.29123 -7.61344e-17)
(22.8255 -4.07802 7.16039e-16)
(23.5808 -3.8098 0)
(24.3141 -3.47091 0)
(25.0039 -3.03945 2.91478e-17)
(25.6044 -2.53133 0)
(26.0906 -1.99862 1.03675e-16)
(26.4742 -1.46336 -2.83821e-19)
(26.77 -0.926911 2.0366e-17)
(26.9828 -0.38328 0)
(27.1137 0.170717 8.69768e-17)
(27.1648 0.734448 -1.66739e-16)
(27.1371 1.29126 0)
(27.0302 1.82171 6.2083e-16)
(26.8438 2.31073 0)
(26.5688 2.75214 0)
(26.2057 3.14571 4.4365e-17)
(25.6579 3.49505 -6.84669e-17)
(25.0392 3.76303 2.17926e-15)
(23.2114 3.89044 8.73182e-15)
(10.806 16.7697 -2.36189e-17)
(11.8377 18.072 -2.91826e-17)
(13.1059 19.3683 3.4025e-17)
(14.5918 20.5805 2.14331e-17)
(16.2624 21.6226 0)
(18.1252 22.4789 0)
(20.1314 23.1012 -4.59582e-16)
(22.2279 23.4508 5.94463e-16)
(24.3714 23.5167 0)
(26.5101 23.2945 -8.19215e-16)
(28.5944 22.7924 -1.08925e-15)
(30.5858 22.0277 -1.04749e-15)
(32.4494 21.0234 1.28601e-15)
(34.1563 19.8063 1.22729e-15)
(35.6807 18.4106 0)
(37.0135 16.8674 2.01106e-15)
(38.1204 15.2267 7.04041e-16)
(38.9657 13.5461 5.75864e-15)
(39.5348 11.8655 3.50687e-16)
(39.8399 10.2164 -3.45877e-16)
(39.9134 8.62943 2.95547e-15)
(39.8285 7.12679 -4.84002e-16)
(39.687 5.69719 2.66836e-15)
(39.5333 4.29849 1.12791e-15)
(39.2744 2.93198 -6.90349e-17)
(38.8245 1.6713 -1.03877e-15)
(38.2269 0.584824 7.62466e-18)
(37.5726 -0.326677 -7.71537e-18)
(36.8935 -1.11281 -1.70693e-15)
(36.1204 -1.81052 -4.45297e-17)
(35.1103 -2.42245 2.77664e-15)
(33.6971 -2.93175 -4.61394e-15)
(31.7743 -3.31409 -3.61469e-15)
(29.3969 -3.5476 7.41567e-19)
(26.7396 -3.62355 4.29589e-15)
(23.967 -3.53473 0)
(20.8209 -3.26001 2.6554e-15)
(17.5598 -2.71538 -1.91099e-16)
(11.485 -2.10553 4.1813e-15)
(9.96973 15.4222 -4.03623e-17)
(9.2488 13.9827 1.31913e-16)
(8.67009 12.299 5.08296e-16)
(8.2409 10.4196 0)
(8.08117 8.43062 -5.63187e-16)
(8.21405 6.40123 0)
(8.63726 4.39407 -2.78967e-15)
(9.3382 2.4986 -8.2896e-17)
(10.2896 0.819871 1.0614e-15)
(11.4247 -0.593406 9.03926e-16)
(12.6627 -1.71983 2.34524e-17)
(13.932 -2.56637 1.51499e-15)
(15.1846 -3.16553 -9.38065e-16)
(16.3857 -3.55754 3.02143e-16)
(17.5137 -3.78362 1.00774e-15)
(18.5622 -3.88304 1.09016e-15)
(19.5346 -3.88821 -9.56587e-16)
(20.439 -3.82358 1.25356e-17)
(21.2878 -3.70632 0)
(22.0941 -3.54292 9.36281e-16)
(22.8684 -3.33395 4.27338e-17)
(23.6174 -3.07119 -6.42041e-16)
(24.34 -2.74086 0)
(25.0187 -2.32281 2.98021e-17)
(25.616 -1.82216 0)
(26.1071 -1.27838 -6.06818e-17)
(26.4982 -0.714656 0)
(26.8014 -0.141567 -1.95375e-17)
(27.0217 0.42942 1.29896e-18)
(27.1621 0.982296 -9.70101e-19)
(27.2281 1.49714 1.59508e-16)
(27.226 1.9622 4.80667e-18)
(27.1595 2.37785 0)
(27.0298 2.74873 -4.36143e-16)
(26.827 3.08239 -5.93139e-18)
(26.5469 3.38419 2.06105e-16)
(26.0912 3.66229 1.48378e-15)
(25.5386 3.85081 5.78614e-18)
(23.8817 3.93614 0)
(12.4238 15.6487 -3.08708e-17)
(13.2962 16.8002 -1.89565e-17)
(14.3718 17.9649 5.75618e-17)
(15.6235 19.0752 -1.05268e-16)
(17.0225 20.0538 7.88354e-18)
(18.5886 20.8987 -8.09938e-17)
(20.2813 21.5671 1.86719e-16)
(22.0598 22.022 0)
(23.8959 22.2515 8.9367e-16)
(25.7465 22.2449 4.49249e-16)
(27.5722 21.9998 0)
(29.3393 21.5239 1.00168e-15)
(31.0136 20.8309 -5.46084e-16)
(32.565 19.9385 1.52404e-15)
(33.9685 18.8702 0)
(35.2033 17.6511 -2.63365e-15)
(36.2523 16.3043 2.56223e-15)
(37.1212 14.8282 -1.5739e-16)
(37.8062 13.2386 0)
(38.297 11.5736 2.82759e-15)
(38.5877 9.87338 -2.85758e-15)
(38.6791 8.18692 -1.47899e-16)
(38.5879 6.54449 -2.25904e-15)
(38.3313 4.96419 -2.11801e-15)
(37.9025 3.48232 0)
(37.2999 2.15482 0)
(36.5788 1.01735 -2.42185e-16)
(35.8251 0.0562627 -2.69905e-17)
(35.1024 -0.777192 1.66562e-15)
(34.4282 -1.51784 -4.3861e-17)
(33.7905 -2.17415 4.37631e-17)
(33.1428 -2.7456 4.52439e-15)
(32.354 -3.22528 0)
(31.1968 -3.58727 1.16716e-14)
(29.3987 -3.78488 -3.80467e-17)
(26.8944 -3.76691 0)
(23.6165 -3.50859 -1.33133e-17)
(19.9615 -2.88697 0)
(13.8455 -2.3037 -3.58835e-15)
(11.7086 14.4628 4.67848e-17)
(11.0874 13.2077 -2.64169e-16)
(10.5687 11.738 -4.91004e-17)
(10.1579 10.0985 1.0887e-15)
(9.95848 8.36899 -1.71338e-15)
(9.98907 6.58633 -2.03333e-15)
(10.2614 4.79737 2.02511e-15)
(10.7695 3.09153 -1.8675e-15)
(11.4935 1.55413 -8.14866e-16)
(12.3893 0.220596 -7.12515e-16)
(13.3971 -0.886884 1.36889e-15)
(14.4608 -1.76495 -1.28748e-15)
(15.54 -2.43343 -5.52079e-16)
(16.6028 -2.91966 5.398e-16)
(17.6259 -3.25103 -1.1372e-15)
(18.5976 -3.45781 2.14938e-16)
(19.5151 -3.56544 0)
(20.3806 -3.59423 -7.53273e-16)
(21.2009 -3.55864 2.62472e-16)
(21.985 -3.46604 -9.89222e-16)
(22.7406 -3.31748 0)
(23.4722 -3.10743 5.59937e-16)
(24.1779 -2.82565 4.17887e-16)
(24.8422 -2.45975 -2.66605e-16)
(25.4334 -2.01588 0)
(25.9275 -1.52747 -1.07451e-16)
(26.326 -1.02039 0)
(26.6385 -0.506833 0)
(26.8692 0.00421772 0)
(27.0203 0.502811 -5.53459e-17)
(27.0955 0.983927 0)
(27.1011 1.4497 0)
(27.0412 1.8982 4.84283e-16)
(26.9194 2.32499 4.30591e-16)
(26.7303 2.72686 0)
(26.476 3.09957 1.0368e-16)
(26.0707 3.44543 8.92954e-17)
(25.6006 3.68785 0)
(24.213 3.83102 -4.3932e-15)
(13.8789 14.6711 4.01942e-17)
(14.6669 15.6903 -2.85709e-17)
(15.6353 16.7272 0)
(16.7576 17.7186 1.18347e-17)
(18.0054 18.5955 2.10677e-17)
(19.4062 19.3619 7.55438e-17)
(20.9249 19.9769 4.19254e-17)
(22.5292 20.4076 -4.89399e-16)
(24.2004 20.6398 -7.49889e-17)
(25.9032 20.6594 8.84909e-16)
(27.6046 20.4592 -3.20451e-16)
(29.2757 20.0394 7.61531e-16)
(30.8838 19.4062 3.8584e-16)
(32.3996 18.5701 2.77739e-16)
(33.7968 17.5471 0)
(35.0509 16.3569 -5.7011e-16)
(36.1443 15.02 -1.28022e-15)
(37.0516 13.5763 -4.80565e-15)
(37.7476 12.076 1.42691e-15)
(38.2255 10.5549 -1.81787e-15)
(38.4884 9.04488 -2.83725e-16)
(38.5518 7.56805 0)
(38.4342 6.13066 2.01944e-15)
(38.1426 4.72581 1.29824e-16)
(37.6682 3.37051 -5.9986e-17)
(37.014 2.11977 -8.52589e-16)
(36.2234 1.02435 1.98819e-16)
(35.3652 0.0898362 4.16164e-16)
(34.4893 -0.716664 -1.55674e-15)
(33.6141 -1.42544 -8.28556e-17)
(32.7526 -2.04726 2.64668e-15)
(31.9313 -2.58593 4.27047e-15)
(31.1755 -3.04447 0)
(30.4707 -3.41987 -1.91561e-17)
(29.648 -3.69229 -4.29447e-15)
(28.3268 -3.79655 0)
(25.8524 -3.64266 -4.8417e-15)
(22.336 -3.02425 0)
(16.2401 -2.45684 3.15257e-15)
(13.2257 13.624 -4.53912e-17)
(12.6545 12.5224 1.05419e-16)
(12.1638 11.2279 -2.52457e-16)
(11.7598 9.78122 0)
(11.5322 8.25772 7.12352e-16)
(11.493 6.67403 3.13921e-15)
(11.6597 5.06736 0)
(12.0284 3.52428 -1.38053e-15)
(12.5829 2.11599 -1.30095e-15)
(13.2939 0.86903 1.28422e-15)
(14.1173 -0.195055 -4.72802e-17)
(15.0092 -1.06636 5.48933e-16)
(15.9379 -1.75615 3.63382e-17)
(16.876 -2.28248 1.3967e-15)
(17.8011 -2.66305 1.22652e-15)
(18.6996 -2.9202 -1.13573e-15)
(19.5646 -3.07404 1.55715e-16)
(20.3937 -3.14205 -2.877e-16)
(21.1888 -3.13776 1.32191e-16)
(21.9546 -3.06954 7.44415e-16)
(22.6955 -2.94023 9.4529e-17)
(23.4136 -2.74712 -6.19518e-17)
(24.106 -2.48271 -3.514e-16)
(24.7586 -2.13783 0)
(25.3444 -1.71632 1.00248e-17)
(25.8407 -1.24457 2.15427e-16)
(26.2455 -0.746413 -2.07511e-19)
(26.5656 -0.2336 2.0799e-19)
(26.8046 0.285295 0)
(26.9642 0.800108 5.23319e-17)
(27.048 1.30147 0)
(27.0613 1.77656 0)
(27.0081 2.21753 -4.5277e-16)
(26.8916 2.61952 -3.42875e-16)
(26.7062 2.98216 0)
(26.4524 3.3034 -9.84544e-17)
(26.0517 3.59 -1.78147e-15)
(25.5757 3.75085 1.23351e-17)
(24.3448 3.81209 4.21234e-15)
(15.0852 13.8413 3.66308e-18)
(15.794 14.755 -2.54575e-17)
(16.6638 15.6912 4.58793e-17)
(17.6666 16.5905 -4.43457e-17)
(18.7735 17.3916 -5.2239e-18)
(20.0163 18.1036 0)
(21.3632 18.6911 -1.90055e-16)
(22.7869 19.1241 -8.51766e-18)
(24.2764 19.3912 -2.55043e-16)
(25.8017 19.4781 -5.28944e-16)
(27.3367 19.3756 0)
(28.858 19.0809 -1.37413e-15)
(30.3359 18.5954 -1.21588e-15)
(31.7436 17.925 -3.01102e-15)
(33.0554 17.0812 0)
(34.2465 16.0796 -1.9164e-15)
(35.2942 14.9412 -2.04111e-15)
(36.1803 13.6868 2.26932e-15)
(36.8956 12.3278 -2.24185e-15)
(37.4295 10.8906 2.08598e-15)
(37.7776 9.40748 2.58646e-16)
(37.9419 7.91598 -2.2254e-15)
(37.9297 6.44478 0)
(37.741 5.01159 -1.95589e-15)
(37.3636 3.64251 1.16599e-16)
(36.7974 2.3827 8.87763e-16)
(36.0794 1.27254 0)
(35.2683 0.317785 -3.06036e-17)
(34.4061 -0.508949 6.56678e-17)
(33.5021 -1.23441 2.52609e-15)
(32.5541 -1.86733 -2.33973e-15)
(31.5711 -2.40896 -4.05017e-15)
(30.5803 -2.86109 3.40139e-15)
(29.6326 -3.22291 -5.98562e-17)
(28.7781 -3.48839 4.2541e-15)
(28.0417 -3.6355 5.37505e-15)
(26.7818 -3.59939 2.47853e-15)
(24.2494 -3.07578 -1.41981e-18)
(18.5748 -2.57011 -5.86548e-18)
(14.4919 12.9043 1.80159e-17)
(13.9696 11.924 1.91913e-16)
(13.5091 10.7695 2.3905e-16)
(13.1168 9.47745 -4.80719e-16)
(12.8732 8.11956 -1.82676e-15)
(12.7866 6.69839 5.32919e-16)
(12.8767 5.2457 1.15301e-15)
(13.1425 3.8438 2.84833e-15)
(13.5699 2.55298 1.11885e-15)
(14.1383 1.3926 -1.04386e-15)
(14.8139 0.382126 -2.29595e-17)
(15.5622 -0.466767 -4.82202e-16)
(16.3585 -1.16147 0)
(17.1806 -1.71423 -1.87486e-17)
(18.0084 -2.1363 -7.59379e-16)
(18.8289 -2.44382 3.24921e-16)
(19.6332 -2.65181 -3.1984e-16)
(20.4159 -2.77385 0)
(21.1757 -2.82083 4.6436e-16)
(21.9137 -2.80018 -7.83642e-16)
(22.6317 -2.71458 0)
(23.3297 -2.56234 5.40281e-16)
(24.0038 -2.33791 0)
(24.6413 -2.03524 -1.63456e-17)
(25.2186 -1.65821 1.63378e-17)
(25.7143 -1.22853 -1.14156e-16)
(26.1235 -0.768664 -2.47099e-18)
(26.4505 -0.291611 -4.85605e-19)
(26.6981 0.192781 -4.57925e-19)
(26.8676 0.673493 3.43319e-17)
(26.9621 1.13947 8.82448e-17)
(26.9864 1.58558 -1.83106e-16)
(26.9441 2.00819 -6.06413e-18)
(26.8379 2.40394 3.4068e-17)
(26.6618 2.77169 0)
(26.4154 3.10761 3.24993e-18)
(26.0253 3.41382 8.55428e-16)
(25.5517 3.59866 -1.34666e-17)
(24.4127 3.67411 3.92233e-15)
(16.1328 13.1126 6.92652e-18)
(16.7818 13.9366 3.93405e-17)
(17.5766 14.7842 0)
(18.4891 15.5997 -2.1505e-17)
(19.4898 16.3274 -3.79348e-17)
(20.6126 16.9801 0)
(21.8287 17.525 -7.05635e-17)
(23.1145 17.9359 6.32003e-16)
(24.4639 18.2027 -9.56316e-16)
(25.8525 18.3109 3.02608e-16)
(27.2589 18.2505 4.54082e-16)
(28.6647 18.0157 1.73303e-15)
(30.0446 17.6041 1.27238e-15)
(31.3744 17.0167 1.55244e-15)
(32.6298 16.2597 4.20011e-16)
(33.7864 15.3434 1.40496e-15)
(34.821 14.2824 1.949e-15)
(35.7143 13.0941 1.92463e-15)
(36.4441 11.8107 -1.43026e-15)
(36.9955 10.4647 -4.39846e-15)
(37.3623 9.08654 0)
(37.5476 7.70319 8.28079e-17)
(37.5597 6.33424 1.74564e-15)
(37.4035 4.9916 1.85881e-15)
(37.0729 3.69544 -1.06754e-16)
(36.5669 2.48527 -7.91965e-16)
(35.9136 1.40123 5.7062e-18)
(35.163 0.455758 -4.06431e-16)
(34.353 -0.369563 4.29382e-17)
(33.4929 -1.09652 -4.6913e-15)
(32.5754 -1.73212 -8.49441e-18)
(31.5949 -2.27565 -6.33277e-17)
(30.5494 -2.72554 -3.23976e-15)
(29.4531 -3.07781 -5.90343e-17)
(28.3296 -3.32397 -3.99843e-15)
(27.3475 -3.44376 -1.05219e-14)
(26.5303 -3.42744 2.49353e-15)
(25.2822 -3.01136 -5.61334e-17)
(20.6055 -2.6246 2.68788e-15)
(15.5848 12.2688 -7.19328e-17)
(15.1003 11.3894 -2.56201e-16)
(14.6643 10.3515 -1.74737e-16)
(14.2831 9.18797 -4.39751e-16)
(14.03 7.96624 9.98168e-16)
(13.911 6.68049 -6.58475e-17)
(13.945 5.35953 -2.86259e-15)
(14.1334 4.08011 -9.65229e-16)
(14.4638 2.8943 2.43e-17)
(14.9209 1.81635 0)
(15.4779 0.86377 -8.80816e-16)
(16.107 0.0483354 8.12101e-16)
(16.7895 -0.635409 -7.72413e-16)
(17.5076 -1.19601 -3.9086e-16)
(18.2446 -1.64017 3.19688e-16)
(18.9889 -1.97917 3.18823e-16)
(19.7315 -2.22335 1.1159e-15)
(20.4654 -2.38244 -2.62259e-16)
(21.1871 -2.46476 -4.32437e-16)
(21.8951 -2.47652 0)
(22.5887 -2.42029 -6.31096e-16)
(23.2659 -2.2953 -4.4748e-16)
(23.922 -2.09763 -1.22391e-17)
(24.5448 -1.82338 -4.46813e-17)
(25.1134 -1.47608 -1.13106e-17)
(25.6074 -1.07307 1.60673e-16)
(26.0198 -0.634773 -1.49932e-18)
(26.3526 -0.174405 8.48407e-18)
(26.6077 0.298109 -1.31716e-18)
(26.7857 0.772002 -3.17453e-17)
(26.889 1.23737 -1.37243e-17)
(26.9217 1.68513 3.41188e-16)
(26.8871 2.10776 2.86489e-16)
(26.7877 2.49979 2.71761e-16)
(26.6178 2.85856 4.19758e-18)
(26.3769 3.1775 -1.06353e-18)
(25.9964 3.45784 -9.6813e-16)
(25.5326 3.59788 -2.20048e-15)
(24.4713 3.61186 -3.61539e-15)
(17.0411 12.4686 -2.14744e-17)
(17.6393 13.2162 -1.669e-17)
(18.3704 13.9879 -7.57768e-17)
(19.206 14.7315 2.26079e-16)
(20.1166 15.3954 -5.58019e-17)
(21.1365 15.9957 -3.5275e-17)
(22.2391 16.5024 2.37222e-16)
(23.4033 16.8922 0)
(24.6266 17.1575 2.89181e-16)
(25.8882 17.2849 1.77294e-17)
(27.1708 17.2642 -3.86005e-16)
(28.4605 17.0894 -1.59401e-15)
(29.7355 16.756 -6.69322e-16)
(30.9745 16.2625 0)
(32.1559 15.6118 0)
(33.256 14.8106 0)
(34.2521 13.8705 0)
(35.1229 12.8085 -1.84042e-15)
(35.8507 11.6418 1.87107e-15)
(36.4207 10.3918 1.83892e-15)
(36.8231 9.08518 -1.48529e-15)
(37.0548 7.75142 1.31114e-15)
(37.1176 6.41723 -1.3641e-15)
(37.0128 5.10419 -1.00337e-16)
(36.7364 3.83594 -4.67246e-17)
(36.2891 2.64624 7.97065e-16)
(35.6951 1.57014 1.72494e-16)
(34.9985 0.622135 0)
(34.2359 -0.210214 0)
(33.4203 -0.944918 3.90106e-17)
(32.5483 -1.58844 0)
(31.6148 -2.13979 3.4403e-15)
(30.6112 -2.59656 -3.02956e-15)
(29.5304 -2.95224 -4.80783e-15)
(28.349 -3.19575 7.4033e-15)
(27.1082 -3.29958 5.02769e-15)
(25.9959 -3.24337 -2.42609e-15)
(25.4643 -2.8606 9.2151e-17)
(22.0754 -2.60124 -2.61011e-15)
(16.5322 11.7033 0)
(16.0803 10.9084 7.22011e-17)
(15.6665 9.96836 3.31636e-16)
(15.2973 8.9133 -1.41146e-15)
(15.0393 7.80534 1.18667e-15)
(14.8978 6.63446 -8.40641e-16)
(14.8902 5.42722 1.85055e-17)
(15.0194 4.25447 7.59696e-16)
(15.2751 3.1625 7.83844e-16)
(15.6447 2.16189 0)
(16.1062 1.26784 3.63559e-16)
(16.6369 0.491563 -1.10599e-15)
(17.2221 -0.171736 1.72348e-15)
(17.8481 -0.728629 3.08452e-16)
(18.5013 -1.18337 -6.21273e-16)
(19.1723 -1.54371 -5.70306e-16)
(19.8526 -1.81654 -5.16259e-16)
(20.5349 -2.00839 0)
(21.2146 -2.12503 0)
(21.8884 -2.17101 0)
(22.5535 -2.14827 5.90402e-16)
(23.2066 -2.05623 0)
(23.842 -1.89188 -3.56441e-16)
(24.4481 -1.65281 -4.3803e-17)
(25.0058 -1.34232 -2.30843e-16)
(25.496 -0.974652 -1.40625e-16)
(25.9099 -0.568183 0)
(26.2474 -0.136362 -6.58759e-18)
(26.5093 0.310452 1.30474e-18)
(26.6958 0.761379 -3.51977e-19)
(26.8086 1.20554 -1.19467e-16)
(26.8512 1.63469 -2.28729e-17)
(26.8263 2.04278 -2.77596e-16)
(26.7362 2.42468 1.87158e-16)
(26.5751 2.7773 0)
(26.3422 3.0934 -4.17988e-18)
(25.973 3.3717 -6.48679e-17)
(25.5213 3.51133 2.08722e-15)
(24.5361 3.51627 -1.98403e-17)
(17.8391 11.8917 2.20763e-17)
(18.3948 12.5733 0)
(19.0725 13.2783 1.47816e-16)
(19.844 13.9579 -1.18443e-16)
(20.6797 14.5644 1.7779e-17)
(21.6141 15.1152 3.28609e-17)
(22.6219 15.5831 -1.0249e-16)
(23.6839 15.9478 -1.53657e-16)
(24.8002 16.2031 0)
(25.9528 16.3367 -3.31413e-16)
(27.1281 16.3392 -3.70014e-16)
(28.3153 16.204 3.66112e-16)
(29.4961 15.9255 1.42509e-15)
(30.6528 15.4999 5.91749e-16)
(31.766 14.927 -1.8034e-15)
(32.8136 14.2103 -1.32452e-15)
(33.774 13.3578 1.05671e-15)
(34.6262 12.3813 7.92841e-16)
(35.3511 11.298 -4.06233e-16)
(35.9307 10.1317 4.10823e-16)
(36.3527 8.9079 1.04409e-15)
(36.6117 7.65259 1.94125e-16)
(36.7074 6.3894 -1.85665e-16)
(36.6404 5.13883 -1.24209e-15)
(36.4078 3.92286 0)
(36.0104 2.77106 -6.67866e-16)
(35.4677 1.71629 -3.2159e-16)
(34.8175 0.77616 -2.97057e-16)
(34.0937 -0.0555149 -1.09869e-15)
(33.3116 -0.792487 4.11096e-15)
(32.4719 -1.44003 1.68947e-15)
(31.5734 -1.99671 4.269e-18)
(30.6119 -2.45969 3.83304e-17)
(29.5802 -2.82204 0)
(28.4536 -3.07022 -3.45395e-15)
(27.2065 -3.17884 0)
(25.7686 -3.10139 0)
(25.2238 -2.68632 -3.44788e-17)
(22.9086 -2.50457 9.10193e-18)
(17.3632 11.1943 -7.3092e-17)
(16.9392 10.4715 2.33705e-16)
(16.545 9.61527 1.67281e-17)
(16.1877 8.65309 3.15654e-16)
(15.9281 7.64222 -1.03047e-15)
(15.7711 6.57007 6.7415e-16)
(15.7324 5.4616 1.94771e-17)
(15.816 4.38251 -6.33846e-16)
(16.0134 3.37434 -6.11449e-16)
(16.3134 2.44504 -6.43325e-16)
(16.6976 1.60799 -1.24961e-15)
(17.1469 0.873511 0)
(17.6495 0.236708 -6.24445e-16)
(18.1949 -0.307995 -2.02823e-17)
(18.7722 -0.763219 0)
(19.3742 -1.13464 -5.07371e-16)
(19.9936 -1.42636 -2.40836e-16)
(20.6238 -1.6424 -2.22861e-16)
(21.2596 -1.78624 7.5145e-16)
(21.8967 -1.86062 6.5815e-16)
(22.5311 -1.86641 -6.53363e-17)
(23.1582 -1.80296 4.84682e-16)
(23.7716 -1.66782 8.50199e-17)
(24.36 -1.45936 -4.27732e-17)
(24.9057 -1.18068 2.05136e-16)
(25.3904 -0.84348 1.20845e-17)
(25.8043 -0.463878 0)
(26.1452 -0.055047 0)
(26.4129 0.372519 1.0504e-19)
(26.607 0.808035 -1.12923e-18)
(26.7284 1.24076 8.92724e-17)
(26.7798 1.66169 -2.24726e-17)
(26.7636 2.0629 -1.94724e-16)
(26.6817 2.43802 -1.78124e-16)
(26.5285 2.78285 -4.31424e-19)
(26.3031 3.0882 4.99457e-18)
(25.9459 3.35081 1.90899e-15)
(25.5078 3.46658 -2.0128e-15)
(24.5996 3.43847 1.84378e-17)
(18.5443 11.3708 8.61238e-18)
(19.0632 11.9947 0)
(19.695 12.641 -7.45265e-17)
(20.4114 13.2638 0)
(21.1829 13.8191 7.17239e-18)
(22.0436 14.3249 -6.91687e-18)
(22.9696 14.7567 7.50494e-17)
(23.943 15.0963 1.44074e-16)
(24.9655 15.339 0)
(26.0213 15.474 -2.05318e-16)
(27.0995 15.493 3.76525e-16)
(28.1923 15.3894 -7.85881e-16)
(29.2841 15.1571 -4.47026e-16)
(30.3601 14.7915 -4.6458e-16)
(31.4035 14.2904 1.14712e-15)
(32.3943 13.6549 1.26013e-15)
(33.3122 12.8901 -1.36903e-15)
(34.1367 12.0053 -1.37918e-15)
(34.849 11.0146 0)
(35.4314 9.93495 3.7646e-16)
(35.8698 8.78819 -7.28829e-16)
(36.1558 7.59908 1.77967e-16)
(36.2859 6.39235 2.37812e-18)
(36.2583 5.19119 2.92469e-15)
(36.0705 4.01818 -1.61603e-16)
(35.7231 2.89934 1.00648e-16)
(35.2318 1.86427 2.95891e-16)
(34.6281 0.932014 3.13827e-16)
(33.9432 0.101344 9.41277e-16)
(33.1928 -0.637444 -1.88297e-15)
(32.3804 -1.28825 -1.54142e-15)
(31.5068 -1.84914 -6.01597e-15)
(30.5716 -2.31662 5.13238e-15)
(29.5724 -2.68429 -7.22339e-17)
(28.492 -2.93668 3.19816e-15)
(27.3389 -3.05206 -9.31092e-17)
(25.8352 -2.9856 4.92954e-17)
(24.9749 -2.52815 9.29381e-18)
(23.2544 -2.35809 -2.25688e-15)
(18.0973 10.7325 3.75599e-17)
(17.6977 10.0719 -1.17329e-16)
(17.3215 9.28827 2.24359e-16)
(16.9758 8.40636 0)
(16.7171 7.4796 5.84798e-16)
(16.5494 6.49339 0)
(16.4874 5.4717 0)
(16.5357 4.47532 0)
(16.687 3.54221 1.12827e-15)
(16.9313 2.67834 -5.45749e-16)
(17.2528 1.89565 6.16378e-16)
(17.6345 1.20357 0)
(18.0672 0.596821 0)
(18.5424 0.0700636 -5.3264e-16)
(19.0517 -0.378496 0)
(19.5898 -0.753121 4.71778e-16)
(20.151 -1.05641 8.94372e-18)
(20.7295 -1.2903 0)
(21.3203 -1.45634 -5.36691e-16)
(21.9189 -1.5557 -7.80081e-16)
(22.5203 -1.58829 -5.32584e-16)
(23.1192 -1.55296 -4.45173e-16)
(23.7088 -1.44731 7.3648e-16)
(24.2781 -1.2701 0)
(24.8101 -1.0242 2.1968e-16)
(25.2875 -0.719145 1.81994e-16)
(25.6996 -0.369081 5.73357e-17)
(26.0427 0.01331 0)
(26.3154 0.417404 -1.75973e-18)
(26.5165 0.832459 1.19718e-18)
(26.6463 1.24758 -5.9587e-17)
(26.7067 1.65345 -2.16571e-17)
(26.6998 2.04246 1.77754e-16)
(26.6269 2.40794 -1.02193e-16)
(26.4825 2.74504 -3.0522e-18)
(26.2654 3.04339 3.20416e-19)
(25.9209 3.29747 -1.91592e-15)
(25.4968 3.40371 1.86397e-15)
(24.6617 3.35885 5.53481e-15)
(19.1719 10.8968 5.31741e-18)
(19.6588 11.4697 -2.60441e-17)
(20.2504 12.0639 0)
(20.919 12.6358 -7.81312e-17)
(21.635 13.1449 0)
(22.4322 13.6094 0)
(23.2873 14.0071 2.16307e-17)
(24.1837 14.3215 1.33259e-16)
(25.1244 14.5494 3.23142e-16)
(26.095 14.6812 8.86938e-16)
(27.0869 14.7097 5.26703e-16)
(28.0945 14.6288 6.29849e-16)
(29.1046 14.4322 0)
(30.1053 14.1146 1.29179e-15)
(31.0819 13.6725 -4.60646e-16)
(32.0167 13.1051 0)
(32.8912 12.4151 1.13644e-15)
(33.6858 11.6088 1.31416e-15)
(34.3821 10.6975 0)
(34.9622 9.69608 1.32841e-15)
(35.4101 8.62497 -1.30392e-15)
(35.7156 7.50648 0)
(35.873 6.36367 -1.56937e-16)
(35.8794 5.21934 2.7102e-17)
(35.7321 4.09521 7.55519e-17)
(35.4313 3.01438 1.14697e-15)
(34.9889 2.00377 -4.18709e-18)
(34.4314 1.08366 -3.06888e-17)
(33.7861 0.257331 -2.56289e-17)
(33.069 -0.481039 5.67877e-17)
(32.2849 -1.13357 1.5381e-15)
(31.4356 -1.69759 5.39211e-15)
(30.5217 -2.16861 4.26781e-17)
(29.5444 -2.54021 -3.81281e-15)
(28.4848 -2.79662 -2.88125e-15)
(27.3961 -2.91277 -4.00878e-15)
(25.9898 -2.86844 -2.06336e-15)
(24.881 -2.39222 6.75556e-18)
(23.3686 -2.18744 2.14207e-15)
(18.7503 10.3104 -7.91059e-17)
(18.3724 9.70445 -2.76441e-16)
(18.0126 8.9843 5.34883e-16)
(17.6784 8.17259 0)
(17.4222 7.31928 9.22265e-16)
(17.2476 6.4089 0)
(17.168 5.46396 -4.52274e-16)
(17.1887 4.54114 1.80338e-15)
(17.3033 3.67542 -1.37839e-15)
(17.5028 2.8716 0)
(17.7727 2.14013 9.93257e-16)
(18.0984 1.48962 9.48958e-16)
(18.4719 0.914476 0)
(18.8864 0.409445 -9.14551e-16)
(19.3353 -0.0270114 2.17147e-16)
(19.815 -0.398672 -2.17506e-16)
(20.3213 -0.707024 2.08175e-16)
(20.8496 -0.952636 3.59761e-16)
(21.3955 -1.13557 -1.60915e-17)
(21.9544 -1.25559 4.20924e-16)
(22.5213 -1.31152 1.16365e-16)
(23.0905 -1.30161 -1.15442e-16)
(23.6549 -1.22332 -3.50556e-16)
(24.2037 -1.07539 2.91417e-16)
(24.7207 -0.860208 -1.93842e-16)
(25.1892 -0.585615 -1.84715e-16)
(25.5979 -0.263785 -5.41073e-17)
(25.9418 0.0933441 -4.10958e-19)
(26.2183 0.475229 2.07975e-18)
(26.4256 0.871335 -1.13315e-18)
(26.5631 1.27083 1.15373e-17)
(26.6321 1.66415 -2.09997e-17)
(26.634 2.04284 -1.01867e-16)
(26.5698 2.39934 1.03931e-16)
(26.4342 2.72784 1.03294e-18)
(26.2258 3.01656 -1.99435e-16)
(25.8951 3.25797 9.38207e-16)
(25.4865 3.34932 0)
(24.7216 3.28439 -5.25049e-15)
(19.7334 10.4628 1.38432e-17)
(20.1919 10.9904 0)
(20.7481 11.5379 0)
(21.3744 12.0641 1.22996e-16)
(22.0418 12.5315 -2.09446e-17)
(22.7832 12.9583 0)
(23.5762 13.324 0)
(24.4051 13.6142 -4.04965e-16)
(25.2734 13.8265 -2.25856e-17)
(26.1686 13.9526 -2.9711e-17)
(27.0831 13.9863 -1.21894e-15)
(28.0133 13.922 -3.33277e-16)
(28.9482 13.7539 6.44119e-16)
(29.8779 13.4763 -5.63781e-17)
(30.7901 13.085 0)
(31.6694 12.5779 0)
(32.4989 11.9558 -3.10316e-15)
(33.2604 11.2228 -5.80711e-16)
(33.9359 10.3877 5.96497e-16)
(34.5082 9.46229 -1.28558e-15)
(34.9608 8.4638 2.45117e-15)
(35.2815 7.41257 1.16577e-15)
(35.4627 6.33071 -1.13427e-15)
(35.5001 5.24104 -1.29108e-15)
(35.3906 4.1647 2.05638e-16)
(35.1337 3.12218 -1.12143e-15)
(34.7385 2.13773 -1.27277e-16)
(34.2263 1.23221 2.83133e-17)
(33.6212 0.412488 -2.84224e-17)
(32.9387 -0.323607 9.4751e-17)
(32.1847 -0.976453 -4.02006e-17)
(31.362 -1.54256 -2.63846e-15)
(30.4708 -2.01651 -9.83721e-17)
(29.5149 -2.39103 1.15102e-16)
(28.4717 -2.65184 0)
(27.4031 -2.76637 3.69009e-15)
(26.1113 -2.73738 1.92e-15)
(24.915 -2.2671 0)
(23.4433 -2.01011 0)
(19.3345 9.92245 0)
(18.976 9.36469 2.44603e-16)
(18.6315 8.70079 -7.88915e-16)
(18.3085 7.95096 -3.70481e-16)
(18.0561 7.16254 -8.32302e-16)
(17.8771 6.31954 0)
(17.7844 5.44302 0)
(17.7835 4.5861 -8.06684e-16)
(17.8688 3.78129 8.30965e-16)
(18.0317 3.03236 0)
(18.2594 2.34864 -4.17896e-16)
(18.5383 1.7382 -4.44909e-16)
(18.8615 1.19522 4.16442e-16)
(19.2236 0.714124 4.2599e-16)
(19.6193 0.293299 -7.88499e-16)
(20.0462 -0.0706718 0)
(20.5015 -0.378833 -1.72562e-16)
(20.9817 -0.630911 1.3197e-17)
(21.4834 -0.825991 7.51559e-16)
(22.0024 -0.962718 -1.31894e-16)
(22.5339 -1.0389 1.26271e-16)
(23.0721 -1.05215 -9.38399e-17)
(23.61 -0.999616 1.31712e-16)
(24.137 -0.879813 -5.95465e-16)
(24.6377 -0.69446 -2.01963e-16)
(25.0956 -0.44989 1.58561e-16)
(25.4993 -0.156545 -9.17504e-18)
(25.8425 0.174536 0)
(26.1217 0.533043 -3.10148e-18)
(26.3343 0.908632 1.04522e-17)
(26.479 1.29057 1.05922e-17)
(26.5563 1.66899 -4.4249e-17)
(26.5671 2.03536 1.58884e-16)
(26.5119 2.38155 -8.07159e-17)