/*--------------------------------*- C++ -*----------------------------------*\
| =========                 |                                                 |
| \\      /  F ield         | OpenFOAM: The Open Source CFD Toolbox           |
|  \\    /   O peration     | Version:  2312                                  |
|   \\  /    A nd           | Website:  www.openfoam.com                      |
|    \\/     M anipulation  |                                                 |
\*---------------------------------------------------------------------------*/
FoamFile
{
    version     2.0;
    format      ascii;
    arch        "LSB;label=32;scalar=64";
    class       volScalarField;
    location    "250";
    object      div(phi);
}
// * * * * * * * * * * * * * * * * * * * * * * * * * * * * * * * * * * * * * //

dimensions      [0 0 -1 0 0 0 0];

internalField   nonuniform List<scalar> 
27
(
-2.80836
14.4294
-5.53342
-13.977
26.091
5.22739
26.5232
21.178
32.0096
32.0988
-44.4828
-18.5415
-67.0058
-34.421
-51.1657
-40.1028
-18.3486
-28.0788
9.66695
27.4845
-5.63111
52.2068
78.4466
30.6484
22.6975
7.66413
2.07611
)
;

boundaryField
{
    aggregate
    {
        type            extrapolatedCalculated;
        value           nonuniform List<scalar> 
24
(
-2.80836
-2.80836
-2.80836
14.4294
14.4294
14.4294
-13.977
-13.977
-13.977
26.091
26.091
26.091
32.0988
32.0988
32.0988
-44.4828
-44.4828
-44.4828
-67.0058
-67.0058
-67.0058
-34.421
-34.421
-34.421
)
;
    }
    XY-Zmin
    {
        type            extrapolatedCalculated;
        value           nonuniform List<scalar> 9(-2.80836 -13.977 26.5232 32.0988 -67.0058 -40.1028 9.66695 52.2068 22.6975);
    }
    YZ-Xmin
    {
        type            extrapolatedCalculated;
        value           nonuniform List<scalar> 9(-2.80836 14.4294 -5.53342 -13.977 26.091 5.22739 26.5232 21.178 32.0096);
    }
    XZ-Ymin
    {
        type            extrapolatedCalculated;
        value           nonuniform List<scalar> 9(-2.80836 14.4294 -5.53342 32.0988 -44.4828 -18.5415 9.66695 27.4845 -5.63111);
    }
    XY-Zmax
    {
        type            extrapolatedCalculated;
        value           nonuniform List<scalar> 9(-5.53342 5.22739 32.0096 -18.5415 -51.1657 -28.0788 -5.63111 30.6484 2.07611);
    }
    XZ-Ymax
    {
        type            extrapolatedCalculated;
        value           nonuniform List<scalar> 9(26.5232 21.178 32.0096 -40.1028 -18.3486 -28.0788 22.6975 7.66413 2.07611);
    }
    YZ-Xmax
    {
        type            extrapolatedCalculated;
        value           nonuniform List<scalar> 9(9.66695 27.4845 -5.63111 52.2068 78.4466 30.6484 22.6975 7.66413 2.07611);
    }
}


// ************************************************************************* //
