/*--------------------------------*- C++ -*----------------------------------*\
| =========                 |                                                 |
| \\      /  F ield         | OpenFOAM: The Open Source CFD Toolbox           |
|  \\    /   O peration     | Version:  2312                                  |
|   \\  /    A nd           | Website:  www.openfoam.com                      |
|    \\/     M anipulation  |                                                 |
\*---------------------------------------------------------------------------*/
FoamFile
{
    version     2.0;
    format      ascii;
    arch        "LSB;label=32;scalar=64";
    class       volScalarField;
    location    "250";
    object      magR;
}
// * * * * * * * * * * * * * * * * * * * * * * * * * * * * * * * * * * * * * //

dimensions      [0 2 -2 0 0 0 0];

internalField   nonuniform List<scalar> 
27
(
0.0551768
0.0391801
0.051163
0.040949
0.0157564
0.0376612
0.0570857
0.0365005
0.0489986
0.0223544
0.00205075
9.8581e-05
0.00287264
0.00274103
0.0100549
0.0161721
0.0161178
0.0330906
0.00277088
0.00376063
0.0719738
0.0882493
0.0491658
0.259093
0.417323
0.383799
0.739918
)
;

boundaryField
{
    aggregate
    {
        type            calculated;
        value           nonuniform List<scalar> 
24
(
2.30037
2.38011
2.19268
2.16117
2.28898
2.11988
2.29327
2.49681
2.2927
2.17961
2.32963
2.11574
1.38376
1.40512
1.31929
1.55704
1.66262
1.56142
1.81797
1.97104
1.7962
1.88648
2.02064
1.81939
)
;
    }
    XY-Zmin
    {
        type            calculated;
        value           nonuniform List<scalar> 9(2.09913 2.04399 1.76992 1.24752 1.63768 2.13277 1.02466 0.983724 1.64023);
    }
    YZ-Xmin
    {
        type            calculated;
        value           nonuniform List<scalar> 9(0.0333089 0.025182 0.0297716 0.0268238 0.0162763 0.022729 0.0348018 0.0254172 0.0339569);
    }
    XZ-Ymin
    {
        type            calculated;
        value           nonuniform List<scalar> 9(2.08364 1.86587 1.51685 1.23474 1.35974 1.42026 1.00295 0.720464 0.800516);
    }
    XY-Zmax
    {
        type            calculated;
        value           nonuniform List<scalar> 9(1.49231 1.47515 1.70683 1.45137 1.72094 1.93847 0.841423 1.34761 2.25929);
    }
    XZ-Ymax
    {
        type            calculated;
        value           nonuniform List<scalar> 9(1.75945 1.58989 1.7334 2.17965 1.88795 1.9672 1.72174 2.00951 2.31745);
    }
    YZ-Xmax
    {
        type            calculated;
        value           nonuniform List<scalar> 9(0.00290178 0.00381681 0.0717688 0.0866867 0.0512472 0.255544 0.403611 0.361552 0.731383);
    }
}


// ************************************************************************* //
