/*--------------------------------*- C++ -*----------------------------------*\
| =========                 |                                                 |
| \\      /  F ield         | OpenFOAM: The Open Source CFD Toolbox           |
|  \\    /   O peration     | Version:  2312                                  |
|   \\  /    A nd           | Website:  www.openfoam.com                      |
|    \\/     M anipulation  |                                                 |
\*---------------------------------------------------------------------------*/
FoamFile
{
    version     2.0;
    format      ascii;
    arch        "LSB;label=32;scalar=64";
    class       volVectorField;
    location    "250";
    object      momentError;
}
// * * * * * * * * * * * * * * * * * * * * * * * * * * * * * * * * * * * * * //

dimensions      [0 1 -2 0 0 0 0];

internalField   nonuniform List<vector> 
27
(
(0.00697124 -0.0138014 -0.0138559)
(-0.00183728 -0.0176739 -0.000742295)
(0.00127038 -0.0124982 0.0111482)
(0.165712 -0.0105409 -0.202868)
(-0.0139423 -0.0190494 -0.00448084)
(1.53319 0.0419614 -1.62775)
(-1.17435 -0.804326 2.32366)
(2.39488 0.0807023 -2.48972)
(2.22608 0.255248 -0.450301)
(-0.048765 -0.0136676 -0.00690611)
(-61.7081 -7.403 -3.60306)
(-0.102349 0.0400666 -0.0889423)
(-89.69 -19.937 21.8565)
(-94.9912 -3.1527 -29.4272)
(-38.42 -1.68268 -17.7168)
(-56.7024 -7.94042 23.2067)
(-156.324 -24.4438 -27.8486)
(-53.4226 -23.8194 -23.4015)
(-453.193 -128.063 -39.4055)
(-1164.68 -84.0337 -97.3117)
(-898.379 -69.9992 -101.044)
(-1664.22 -192.949 84.9121)
(-1512.13 -345.381 -131.03)
(-918.431 -374.414 -233.606)
(-1060.99 -649.615 -57.899)
(-50.8804 -809.518 -45.0053)
(547.392 -544.89 38.3818)
)
;

boundaryField
{
    aggregate
    {
        type            calculated;
        value           nonuniform List<vector> 
24
(
(-86.9095 -70.571 102.51)
(625.835 -11.0301 -0.617576)
(-86.9095 17.7251 15.9842)
(437.489 -271.609 578.899)
(1159.08 50.4912 21.0077)
(437.489 135.739 70.2267)
(-444.14 -97.9547 84.5915)
(436.556 -50.0887 1.6855)
(-444.14 -345.203 -168.694)
(799.205 -186.376 500.97)
(1676.56 87.0558 27.3677)
(799.205 -61.6944 -58.5141)
(746.328 92.4988 66.8738)
(1220.17 114.868 28.1294)
(746.328 266.903 115.907)
(-1199.59 -5.52144 -256.34)
(-1085.2 -123.092 -52.7025)
(-1199.59 -327.433 -170.681)
(-1973.37 -229.366 193.019)
(-1906.65 -143.525 44.3382)
(-1973.37 -556.116 -193.866)
(-1077.07 -27.9888 -73.8679)
(-935.532 -46.7532 -41.3666)
(-1077.07 -626.061 -375.834)
)
;
    }
    XY-Zmin
    {
        type            calculated;
        value           nonuniform List<vector> 9((-86.9095 -11.0301 119.112) (-444.14 -50.0887 -85.7914) (726.71 84.5441 11.435) (746.328 114.868 154.651) (-1973.37 -143.525 -45.1887) (-1295.97 -79.9563 45.8777) (-249.498 -118.783 -217.179) (-539.238 -279.514 38.5201) (-448.778 -686.556 30.6118));
    }
    YZ-Xmin
    {
        type            calculated;
        value           nonuniform List<vector> 9((708.587 -0.859685 -0.61464) (794.471 -1.735 20.9056) (-6.4489 4.4481 -7.42061) (808.011 0.505386 1.67632) (1017.47 -7.35768 27.2348) (360.98 -9.4315 4.5837) (801.024 -11.418 2.18722) (817.533 -4.74258 1.18853) (864.594 -38.9751 3.78082));
    }
    XZ-Ymin
    {
        type            calculated;
        value           nonuniform List<vector> 9((-86.9095 -41.8157 -0.617576) (437.489 -186.364 21.0077) (-141.746 -321.63 -7.45689) (746.328 244.534 28.1294) (-1199.59 -209.862 -52.7025) (-457.146 -1.77637 -8.75681) (-249.498 -481.95 -41.0543) (-657.778 -296.182 -119.036) (-1000.82 -243.604 -97.9389));
    }
    XY-Zmax
    {
        type            calculated;
        value           nonuniform List<vector> 9((-141.746 -15.5611 453.328) (143.659 9.44555 449.176) (875.65 76.7084 67.7899) (-457.146 -51.8868 -434.617) (-1531.64 -75.0107 -331.76) (-878.296 -76.372 68.849) (-1000.82 -76.7462 -112.26) (-137.796 -393.912 -187.85) (614.629 -544.901 98.4191));
    }
    XZ-Ymax
    {
        type            calculated;
        value           nonuniform List<vector> 9((726.71 -208.316 2.18655) (587.512 -101.562 1.2065) (875.65 -455.922 3.80144) (-1295.97 -667.432 18.5002) (-710.324 -518.303 -36.3719) (-878.296 -152.706 -33.6616) (-448.778 -645.264 -51.8443) (190.631 -652.123 -37.5456) (614.629 -368.796 40.1981));
    }
    YZ-Xmax
    {
        type            calculated;
        value           nonuniform List<vector> 9((-443.465 -128.075 -39.4062) (-1851.49 -84.2322 -97.3625) (-1198.34 -69.9553 -101.034) (-2919.34 -194.617 84.8721) (-2773.81 -348.228 -131.293) (-1767.4 -375.046 -233.606) (-1597.1 -650.337 -57.8623) (-368.61 -809.639 -44.9788) (301.034 -544.903 38.3849));
    }
}


// ************************************************************************* //
