/*--------------------------------*- C++ -*----------------------------------*\
| =========                 |                                                 |
| \\      /  F ield         | OpenFOAM: The Open Source CFD Toolbox           |
|  \\    /   O peration     | Version:  2312                                  |
|   \\  /    A nd           | Website:  www.openfoam.com                      |
|    \\/     M anipulation  |                                                 |
\*---------------------------------------------------------------------------*/
FoamFile
{
    version     2.0;
    format      ascii;
    arch        "LSB;label=32;scalar=64";
    class       volScalarField;
    location    "250";
    object      nuTilda;
}
// * * * * * * * * * * * * * * * * * * * * * * * * * * * * * * * * * * * * * //

dimensions      [0 2 -1 0 0 0 0];

internalField   nonuniform List<scalar> 
27
(
5.57515e-05
5.5604e-05
5.27327e-05
5.64471e-05
5.12324e-05
5.2021e-05
5.26405e-05
4.89279e-05
4.96564e-05
3.86669e-05
1.28695e-05
2.20309e-06
1.43969e-05
1.87194e-05
2.52264e-05
2.61211e-05
3.1023e-05
3.86827e-05
1.35824e-05
1.84595e-05
7.69004e-05
0.000104503
0.000180459
0.000248493
0.000260812
0.000323348
0.000414536
)
;

boundaryField
{
    aggregate
    {
        type            fixedValue;
        value           uniform 0;
    }
    XY-Zmin
    {
        type            fixedValue;
        value           uniform 0;
    }
    YZ-Xmin
    {
        type            freestream;
        freestreamValue uniform 4e-05;
        value           uniform 4e-05;
    }
    XZ-Ymin
    {
        type            fixedValue;
        value           uniform 0;
    }
    XY-Zmax
    {
        type            fixedValue;
        value           uniform 0;
    }
    XZ-Ymax
    {
        type            fixedValue;
        value           uniform 0;
    }
    YZ-Xmax
    {
        type            freestream;
        freestreamValue uniform 4e-05;
        value           nonuniform List<scalar> 9(1.35824e-05 1.84595e-05 7.69004e-05 0.000104503 0.000180459 0.000248493 0.000260812 0.000323348 0.000414536);
    }
}


// ************************************************************************* //
