/*--------------------------------*- C++ -*----------------------------------*\
| =========                 |                                                 |
| \\      /  F ield         | OpenFOAM: The Open Source CFD Toolbox           |
|  \\    /   O peration     | Version:  2312                                  |
|   \\  /    A nd           | Website:  www.openfoam.com                      |
|    \\/     M anipulation  |                                                 |
\*---------------------------------------------------------------------------*/
FoamFile
{
    version     2.0;
    format      ascii;
    arch        "LSB;label=32;scalar=64";
    class       surfaceScalarField;
    location    "250";
    object      phi;
}
// * * * * * * * * * * * * * * * * * * * * * * * * * * * * * * * * * * * * * //

dimensions      [0 3 -1 0 0 0 0];

oriented        oriented;

internalField   nonuniform List<scalar> 
54
(
0.0045342
0.0232242
0.0284169
-0.0021354
0.020833
0.0207948
0.0218835
0.0273501
0.000301537
0.0320078
0.0030129
0.0114989
0.2221
0.0139858
0.230656
-0.00440743
0.253346
0.248528
0.027172
0.000543221
0.246173
0.0157271
0.00197093
0.293894
0.0232422
0.310763
0.00446225
0.00239061
0.307675
0.00998386
0.0060743
0.303726
0.0143145
0.209029
-0.0100731
0.1944
-0.00430234
0.207155
0.212065
-0.0151465
-0.00502586
0.22037
-0.0154768
-0.000480584
0.253627
-0.00466881
0.272731
-0.00964565
0.00754052
0.295627
-0.00442349
0.00961814
0.296037
0.0035204
)
;

boundaryField
{
    aggregate
    {
        type            calculated;
        value           uniform 0;
    }
    XY-Zmin
    {
        type            calculated;
        value           uniform 0;
    }
    YZ-Xmin
    {
        type            calculated;
        value           nonuniform List<scalar> 9(-0.257509 -0.257553 -0.257539 -0.257556 -0.257448 -0.257487 -0.257191 -0.257201 -0.257205);
    }
    XZ-Ymin
    {
        type            calculated;
        value           uniform 0;
    }
    XY-Zmax
    {
        type            calculated;
        value           uniform 0;
    }
    XZ-Ymax
    {
        type            calculated;
        value           uniform 0;
    }
    YZ-Xmax
    {
        type            calculated;
        value           nonuniform List<scalar> 9(0.243915 0.23159 0.20189 0.263797 0.283218 0.275605 0.278243 0.29679 0.311251);
    }
}


// ************************************************************************* //
