/*--------------------------------*- C++ -*----------------------------------*\
| =========                 |                                                 |
| \\      /  F ield         | OpenFOAM: The Open Source CFD Toolbox           |
|  \\    /   O peration     | Version:  2312                                  |
|   \\  /    A nd           | Website:  www.openfoam.com                      |
|    \\/     M anipulation  |                                                 |
\*---------------------------------------------------------------------------*/
FoamFile
{
    version     2.0;
    format      ascii;
    arch        "LSB;label=32;scalar=64";
    class       volScalarField;
    location    "250";
    object      turbulenceProperties:nut;
}
// * * * * * * * * * * * * * * * * * * * * * * * * * * * * * * * * * * * * * //

dimensions      [0 2 -1 0 0 0 0];

internalField   nonuniform List<scalar> 
27
(
1.81873e-05
1.80422e-05
1.53257e-05
1.88787e-05
1.39919e-05
1.46854e-05
1.52419e-05
1.20641e-05
1.26573e-05
5.37719e-06
7.61887e-08
6.58178e-11
1.19041e-07
3.36903e-07
1.0829e-06
1.23903e-06
2.38872e-06
5.38506e-06
9.44291e-08
3.18813e-07
4.30326e-05
7.95543e-05
0.0001701
0.000242828
0.000255655
0.000319961
0.000412464
)
;

boundaryField
{
    aggregate
    {
        type            nutUSpaldingWallFunction;
        value           nonuniform List<scalar> 
24
(
0.00151989
0.000159041
0.00114859
0.00112896
0.000156175
0.00149397
0.00117274
0.000162563
0.00155175
0.00150509
0.000157406
0.0011374
0.00120447
0.00012419
0.000909724
0.000979297
0.000134339
0.00129635
0.00105554
0.000145464
0.00139699
0.00141286
0.000147214
0.00106755
)
;
    }
    XY-Zmin
    {
        type            nutUSpaldingWallFunction;
        value           nonuniform List<scalar> 9(0.00205354 0.00207761 0.00196504 0.00162361 0.00186849 0.00216072 0.00156888 0.00160095 0.00192884);
    }
    YZ-Xmin
    {
        type            freestream;
        freestreamValue uniform 1e-05;
        value           uniform 1e-05;
    }
    XZ-Ymin
    {
        type            nutUSpaldingWallFunction;
        value           nonuniform List<scalar> 9(0.0020345 0.00201816 0.00185602 0.0016086 0.00174873 0.00179624 0.00156888 0.00140459 0.00139018);
    }
    XY-Zmax
    {
        type            nutUSpaldingWallFunction;
        value           nonuniform List<scalar> 9(0.00185602 0.00194381 0.00195075 0.00179624 0.00206005 0.0020719 0.00139018 0.00183638 0.00224469);
    }
    XZ-Ymax
    {
        type            nutUSpaldingWallFunction;
        value           nonuniform List<scalar> 9(0.00196504 0.00197722 0.00195075 0.00216072 0.00212238 0.0020719 0.00192884 0.00219468 0.00224469);
    }
    YZ-Xmax
    {
        type            freestream;
        freestreamValue uniform 1e-05;
        value           nonuniform List<scalar> 9(9.44291e-08 3.18813e-07 4.30326e-05 7.95543e-05 0.0001701 0.000242828 0.000255655 0.000319961 0.000412464);
    }
}


// ************************************************************************* //
