/*--------------------------------*- C++ -*----------------------------------*\
| =========                 |                                                 |
| \\      /  F ield         | OpenFOAM: The Open Source CFD Toolbox           |
|  \\    /   O peration     | Version:  2312                                  |
|   \\  /    A nd           | Website:  www.openfoam.com                      |
|    \\/     M anipulation  |                                                 |
\*---------------------------------------------------------------------------*/
FoamFile
{
    version     2.0;
    format      ascii;
    arch        "LSB;label=32;scalar=64";
    class       volScalarField;
    location    "250";
    object      turbulenceProperties:nuEff;
}
// * * * * * * * * * * * * * * * * * * * * * * * * * * * * * * * * * * * * * //

dimensions      [0 2 -1 0 0 0 0];

internalField   nonuniform List<scalar> 
27
(
2.81873e-05
2.80422e-05
2.53257e-05
2.88787e-05
2.39919e-05
2.46854e-05
2.52419e-05
2.20641e-05
2.26573e-05
1.53772e-05
1.00762e-05
1.00001e-05
1.0119e-05
1.03369e-05
1.10829e-05
1.1239e-05
1.23887e-05
1.53851e-05
1.00944e-05
1.03188e-05
5.30326e-05
8.95543e-05
0.0001801
0.000252828
0.000265655
0.000329961
0.000422464
)
;

boundaryField
{
    aggregate
    {
        type            calculated;
        value           nonuniform List<scalar> 
24
(
0.00152989
0.000169041
0.00115859
0.00113896
0.000166175
0.00150397
0.00118274
0.000172563
0.00156175
0.00151509
0.000167406
0.0011474
0.00121447
0.00013419
0.000919724
0.000989297
0.000144339
0.00130635
0.00106554
0.000155464
0.00140699
0.00142286
0.000157214
0.00107755
)
;
    }
    XY-Zmin
    {
        type            calculated;
        value           nonuniform List<scalar> 9(0.00206354 0.00208761 0.00197504 0.00163361 0.00187849 0.00217072 0.00157888 0.00161095 0.00193884);
    }
    YZ-Xmin
    {
        type            calculated;
        value           uniform 2e-05;
    }
    XZ-Ymin
    {
        type            calculated;
        value           nonuniform List<scalar> 9(0.0020445 0.00202816 0.00186602 0.0016186 0.00175873 0.00180624 0.00157888 0.00141459 0.00140018);
    }
    XY-Zmax
    {
        type            calculated;
        value           nonuniform List<scalar> 9(0.00186602 0.00195381 0.00196075 0.00180624 0.00207005 0.0020819 0.00140018 0.00184638 0.00225469);
    }
    XZ-Ymax
    {
        type            calculated;
        value           nonuniform List<scalar> 9(0.00197504 0.00198722 0.00196075 0.00217072 0.00213238 0.0020819 0.00193884 0.00220468 0.00225469);
    }
    YZ-Xmax
    {
        type            calculated;
        value           nonuniform List<scalar> 9(1.00944e-05 1.03188e-05 5.30326e-05 8.95543e-05 0.0001801 0.000252828 0.000265655 0.000329961 0.000422464);
    }
}


// ************************************************************************* //
