/*--------------------------------*- C++ -*----------------------------------*\
| =========                 |                                                 |
| \\      /  F ield         | OpenFOAM: The Open Source CFD Toolbox           |
|  \\    /   O peration     | Version:  2312                                  |
|   \\  /    A nd           | Website:  www.openfoam.com                      |
|    \\/     M anipulation  |                                                 |
\*---------------------------------------------------------------------------*/
FoamFile
{
    version     2.0;
    format      ascii;
    arch        "LSB;label=32;scalar=64";
    class       volScalarField;
    location    "250";
    object      turbulenceProperties:k;
}
// * * * * * * * * * * * * * * * * * * * * * * * * * * * * * * * * * * * * * //

dimensions      [0 2 -2 0 0 0 0];

internalField   nonuniform List<scalar> 
27
(
0.0470784
0.0334331
0.0437437
0.0349232
0.0134883
0.0322157
0.0488105
0.0312856
0.0419786
0.019268
0.00177587
8.53737e-05
0.0024875
0.00237312
0.00869899
0.0139893
0.0139277
0.0285188
0.00239944
0.00325585
0.0604845
0.0731723
0.0405343
0.211055
0.339771
0.312315
0.601722
)
;

boundaryField
{
    aggregate
    {
        type            calculated;
        value           uniform 0;
    }
    XY-Zmin
    {
        type            calculated;
        value           uniform 0;
    }
    YZ-Xmin
    {
        type            calculated;
        value           nonuniform List<scalar> 9(0.0284653 0.0215328 0.0254089 0.0229352 0.0139447 0.0193988 0.0297019 0.0216926 0.0289809);
    }
    XZ-Ymin
    {
        type            calculated;
        value           uniform 0;
    }
    XY-Zmax
    {
        type            calculated;
        value           uniform 0;
    }
    XZ-Ymax
    {
        type            calculated;
        value           uniform 0;
    }
    YZ-Xmax
    {
        type            calculated;
        value           nonuniform List<scalar> 9(0.00251279 0.00330446 0.0603063 0.0717902 0.0418573 0.208106 0.328651 0.294181 0.594776);
    }
}


// ************************************************************************* //
