/*--------------------------------*- C++ -*----------------------------------*\
| =========                 |                                                 |
| \\      /  F ield         | OpenFOAM: The Open Source CFD Toolbox           |
|  \\    /   O peration     | Version:  2312                                  |
|   \\  /    A nd           | Website:  www.openfoam.com                      |
|    \\/     M anipulation  |                                                 |
\*---------------------------------------------------------------------------*/
FoamFile
{
    version     2.0;
    format      ascii;
    arch        "LSB;label=32;scalar=64";
    class       volSymmTensorField;
    location    "250";
    object      turbulenceProperties:devReff;
}
// * * * * * * * * * * * * * * * * * * * * * * * * * * * * * * * * * * * * * //

dimensions      [0 2 -2 0 0 0 0];

internalField   nonuniform List<symmTensor> 
27
(
(0.00304109 -0.0069281 -0.00715159 -0.00218954 -0.000859676 -0.000851549)
(0.00274861 -0.00652055 -0.00231471 -0.00189331 -0.000455007 -0.000855296)
(0.000359937 -0.00648131 0.00687839 -0.00111938 0.000480457 0.000759444)
(0.0016938 -0.00191128 -0.00726844 -0.000982438 -0.000779125 -0.000711357)
(0.00162643 -0.0015411 -0.00199866 -0.000851326 3.52935e-05 -0.000775109)
(-0.00101847 0.000286427 0.00687688 0.000285007 0.000790655 0.000733459)
(-0.00170821 0.00777492 -0.00696476 0.00173539 -0.000852387 -2.71745e-05)
(-0.00141173 0.00659039 -5.29924e-05 0.00146314 0.000230344 -5.14135e-05)
(-0.00111714 0.00650751 0.00616481 0.000998118 0.000805063 0.000119017)
(-0.000131149 -0.00312452 -0.00304486 -0.000149177 -0.000420005 0.000280326)
(-6.7368e-05 -0.00213687 -0.000806055 -0.00011411 -0.000116807 0.000181478)
(0.000582849 -0.00261112 0.00260842 -0.000582945 0.000194283 9.58044e-08)
(-0.000390565 -0.00107574 -0.00232316 0.000208026 -9.23227e-05 0.000182539)
(-0.000483269 -0.000969791 -0.00095917 0.000265381 -1.50801e-05 0.000217887)
(4.22559e-05 -0.000127025 0.00326302 -4.51984e-05 0.00015495 2.94252e-06)
(-7.93697e-05 0.00358323 -0.00344854 0.00027704 -0.00025389 -0.00019767)
(-0.000463551 0.00389319 4.49893e-05 0.000476733 4.52721e-05 -1.31821e-05)
(-0.000735098 0.00468898 0.00452537 0.000557926 0.000443536 0.000177171)
(9.58451e-05 -0.0020144 -0.00193968 -6.1193e-05 -6.04241e-05 -3.46521e-05)
(0.000453485 -0.00202511 0.000249506 -0.000187464 5.3809e-05 -0.000266021)
(0.0026023 -0.0111571 0.00998368 -0.00109435 0.000604664 -0.00150795)
(0.00306942 -0.00104755 -0.0200149 -0.000652373 0.00129726 -0.00241705)
(0.00618888 -0.00909029 -0.00275723 -0.00177491 -0.00250851 -0.00441397)
(0.0056508 -0.0153788 0.0624992 -0.000688171 -0.00472636 -0.00496263)
(0.0109933 0.0689121 -0.0778776 -0.00821374 0.0034124 -0.00277959)
(0.000582904 0.0951981 -0.00975898 -0.0033758 -0.00187994 0.00279289)
(-0.0101107 0.126151 0.133903 -0.000203605 0.000151393 0.0103144)
)
;

boundaryField
{
    aggregate
    {
        type            calculated;
        value           nonuniform List<symmTensor> 
24
(
(0.224466 -1.21355 1.06247 -0.271294 0.127108 0.0468281)
(2.05773 0.152098 -0.0314019 -1.03288 -0.00515553 -1.02485)
(-0.0204469 1.39559 0.676199 0.185957 0.0992478 -0.16551)
(0.0904471 0.511984 -1.4395 0.0830295 -0.141399 -0.173477)
(1.98175 0.130072 0.059318 -0.99395 -0.00269632 -0.987799)
(-0.00546824 1.26091 0.805767 0.112739 0.160816 -0.107271)
(0.139344 -0.990728 1.28272 -0.1761 0.147529 0.0367562)
(2.15458 0.16747 -0.0506426 -1.0781 -0.00465563 -1.07648)
(0.174679 -1.23161 -1.04445 -0.227523 -0.109328 0.0528433)
(0.0675494 0.639247 -1.402 0.0816071 -0.126677 -0.149157)
(2.01505 0.150101 0.0387491 -1.00779 0.000246263 -1.00726)
(0.18263 -1.26875 -0.785554 -0.200916 -0.117685 0.0182863)
(0.0170137 -0.746995 0.625931 -0.138869 0.0797094 0.121856)
(-1.22207 -0.169414 -0.0612567 0.60916 -0.00366519 0.612908)
(-0.119622 0.831736 0.405981 0.174574 0.09481 -0.0549518)
(-0.0161921 0.350024 -1.04878 0.0926528 -0.0852535 -0.0764607)
(-1.44765 -0.142251 -0.0597187 0.721709 -0.00167324 0.725944)
(-0.103064 0.929952 0.592368 0.11957 0.0978958 -0.0165064)
(-0.0011352 -0.828775 0.994647 -0.0348158 0.080749 0.035951)
(-1.7156 -0.104283 -0.0204396 0.857997 -0.0014184 0.857606)
(-0.0135628 -0.988684 -0.80747 -0.0636806 -0.0417004 0.0772434)
(-0.0829834 0.506518 -1.24056 0.079156 -0.0504481 0.00382739)
(-1.7593 -0.0767522 -0.0316851 0.880013 -0.000229354 0.879291)
(-0.0159485 -1.10512 -0.679665 -0.0280904 -0.0389537 0.0440389)
)
;
    }
    XY-Zmin
    {
        type            calculated;
        value           nonuniform List<symmTensor> 9((0.219658 -0.507195 -1.37771 -0.163267 -0.174055 -0.0563909) (0.113167 -0.138164 -1.43331 -0.0802954 -0.159633 -0.0328714) (-0.134909 0.608345 -1.08514 0.134533 -0.128538 0.000375979) (-0.00224473 -0.331935 -0.812997 -0.00416001 -0.128798 0.00640473) (-0.0816805 -0.199699 -1.14267 0.0294416 -0.068457 0.0522389) (-0.0161432 0.69207 -1.34455 0.0526942 -0.0804992 -0.036551) (0.0164583 -0.315076 -0.656827 -0.00810426 -0.0279713 -0.00835401) (0.055811 -0.0188439 -0.69603 -0.0111387 0.0499004 -0.0446723) (0.0791148 0.502945 -1.04733 -0.0610653 0.064471 -0.0180495));
    }
    YZ-Xmin
    {
        type            calculated;
        value           nonuniform List<symmTensor> 9((-0.0024636 -0.00522979 -0.00507283 0.000757122 -0.000609975 0.00170648) (-0.00210742 -0.0049038 -0.00205488 0.000683548 -0.000324516 0.00142387) (0.000190726 -0.00495809 0.00507512 -0.000837229 0.000379423 0.000646503) (-0.00327616 -0.00167001 -0.00501627 0.00154421 -0.000539585 0.00173195) (-0.00251744 -0.00159646 -0.00199566 0.00122695 2.94212e-05 0.00129049) (-0.00094091 0.000557941 0.00531859 0.000288788 0.000640586 0.000652122) (-0.00134164 0.00609815 -0.00550513 0.00136909 -0.000675375 -2.74471e-05) (-0.00143623 0.00592914 -5.37722e-05 0.00140455 0.000208795 3.16822e-05) (-0.00111504 0.00593773 0.00543861 0.000945517 0.000710644 0.000169518));
    }
    XZ-Ymin
    {
        type            calculated;
        value           nonuniform List<symmTensor> 9((0.294822 -1.35176 -0.518726 -0.307299 -0.0712257 0.0124774) (0.262597 -1.2864 -0.167413 -0.264539 -0.0754964 0.00194255) (0.0677655 -0.940895 0.506807 -0.164967 0.00876463 0.0972016) (0.046101 -0.806063 -0.320502 -0.135514 -0.071422 0.0894129) (0.0351011 -0.949971 -0.140691 -0.113636 -0.0515761 0.0785353) (0.147233 -0.875913 0.471141 -0.189206 0.0318209 0.0419738) (0.038876 -0.643999 -0.303388 -0.0573408 -0.00641025 0.0184648) (0.0776283 -0.506763 0.0342043 -0.0566209 0.0206785 -0.0210074) (0.0884518 -0.498344 0.263591 -0.0683842 0.0275698 -0.0200677));
    }
    XY-Zmax
    {
        type            calculated;
        value           nonuniform List<symmTensor> 9((0.0104187 -0.47755 0.939193 -0.0985791 0.0811359 0.0881604) (-0.0971392 0.0226703 1.04072 0.00602888 0.0821815 0.0911103) (-0.0981402 0.563158 1.06516 0.0849131 0.106671 0.0132271) (0.103631 -0.471629 0.907638 -0.106939 0.0875536 0.00330818) (-0.0114122 -0.0237256 1.22057 -0.0277468 0.0603905 0.039159) (-0.103857 0.634509 1.21548 0.0711146 0.0925624 0.032742) (0.0727383 -0.294571 0.516562 -0.0248614 0.037389 -0.0478769) (0.0381847 -0.112309 0.950141 -0.00810801 -0.0366599 -0.0300767) (-0.0663703 0.673265 1.45469 -0.013496 0.00966088 0.0798663));
    }
    XZ-Ymax
    {
        type            calculated;
        value           nonuniform List<symmTensor> 9((-0.173542 1.10598 -0.544954 0.215552 -0.0654696 -0.0420103) (-0.172445 1.11157 -0.00477279 0.222372 0.015178 -0.0499272) (-0.131751 1.09913 0.5335 0.156525 0.0618705 -0.0247744) (-0.040953 1.39419 -0.666055 0.104755 -0.0414051 -0.0638017) (-0.124196 1.33236 0.00774369 0.170872 0.0190023 -0.0466768) (-0.128492 1.24812 0.612371 0.133537 0.0606014 -0.00504482) (0.101073 1.07848 -0.568378 -0.101626 0.0338893 0.000553125) (0.00924031 1.42539 -0.065206 -0.033247 0.0250354 0.0240067) (-0.0586224 1.48143 0.714638 0.00823623 0.0303564 0.0503862));
    }
    YZ-Xmax
    {
        type            calculated;
        value           nonuniform List<symmTensor> 9((-5.63749e-05 -0.00215135 -0.0019944 1.4917e-05 -6.04241e-05 4.14579e-05) (-5.70942e-05 -0.00213623 0.000148149 6.78254e-05 5.3809e-05 -1.07312e-05) (0.000302109 -0.0115861 0.00971256 5.57443e-05 0.000604664 -0.000357853) (-0.00101737 -0.00269964 -0.0199187 0.00139103 0.00129726 -0.000373651) (-0.000816458 -0.0118991 -0.00354394 0.00172776 -0.00250851 -0.000911303) (-0.000612783 -0.0180469 0.0611885 0.00244362 -0.00472636 -0.00183084) (0.00406012 0.0642805 -0.0776748 -0.00474714 0.0034124 0.000687018) (0.00357428 0.0897187 -0.00890811 -0.00487149 -0.00187994 0.00129721) (-0.0015739 0.12216 0.134985 -0.00447203 0.000151393 0.00604593));
    }
}


// ************************************************************************* //
