/*--------------------------------*- C++ -*----------------------------------*\
| =========                 |                                                 |
| \\      /  F ield         | OpenFOAM: The Open Source CFD Toolbox           |
|  \\    /   O peration     | Version:  2312                                  |
|   \\  /    A nd           | Website:  www.openfoam.com                      |
|    \\/     M anipulation  |                                                 |
\*---------------------------------------------------------------------------*/
FoamFile
{
    version     2.0;
    format      ascii;
    arch        "LSB;label=32;scalar=64";
    class       volSymmTensorField;
    location    "250";
    object      turbulenceProperties:R;
}
// * * * * * * * * * * * * * * * * * * * * * * * * * * * * * * * * * * * * * //

dimensions      [0 2 -2 0 0 0 0];

internalField   nonuniform List<symmTensor> 
27
(
(0.0333478 -0.00447022 -0.00461442 0.0299728 -0.000554689 0.0308361)
(0.0240572 -0.00419529 -0.00148927 0.0210706 -0.000292749 0.0217384)
(0.0293803 -0.00392212 0.00416241 0.0284851 0.000290745 0.0296221)
(0.0243894 -0.00124945 -0.00475156 0.0226399 -0.000509333 0.0228171)
(0.00994072 -0.000898757 -0.0011656 0.00849571 2.05829e-05 0.00854016)
(0.0208712 0.000170396 0.00409107 0.0216467 0.000470362 0.0219135)
(0.0315089 0.00469475 -0.00420555 0.0335882 -0.0005147 0.032524)
(0.0200851 0.00360347 -2.8975e-05 0.0216571 0.000125947 0.0208289)
(0.0273617 0.00363536 0.00344391 0.0285433 0.000449741 0.0280522)
(0.0127995 -0.0010926 -0.00106475 0.0127932 -0.00014687 0.0129433)
(0.00118341 -1.61575e-05 -6.0948e-06 0.00118305 -8.83211e-07 0.00118529)
(5.69196e-05 -1.71857e-08 1.71679e-08 5.69119e-05 1.27872e-09 5.69158e-05)
(0.00165374 -1.26551e-05 -2.73299e-05 0.00166078 -1.08609e-06 0.00166048)
(0.00156633 -3.16077e-05 -3.12615e-05 0.00159073 -4.91495e-07 0.00158918)
(0.00580345 -1.24115e-05 0.000318828 0.00579491 1.51401e-05 0.00579961)
(0.00931745 0.000395029 -0.00038018 0.00935674 -2.79898e-05 0.0093044)
(0.00919575 0.000750662 8.67456e-06 0.00937705 8.72909e-06 0.00928259)
(0.0187552 0.00164123 0.00158397 0.0192078 0.000155246 0.0190745)
(0.00160052 -1.88439e-05 -1.81449e-05 0.00159905 -5.65242e-07 0.0015993)
(0.00218458 -6.25685e-05 7.70881e-06 0.00216477 1.6625e-06 0.00216235)
(0.0424346 -0.00905327 0.00810112 0.039435 0.000490647 0.0390994)
(0.0515082 -0.000930575 -0.01778 0.048202 0.0011524 0.0466344)
(0.0328681 -0.00858556 -0.00260414 0.0253465 -0.00236922 0.022854)
(0.146131 -0.0147705 0.0600272 0.140042 -0.00453942 0.135937)
(0.237093 0.066318 -0.074946 0.218609 0.00328395 0.223839)
(0.208775 0.092313 -0.00946322 0.204936 -0.00182297 0.210918)
(0.391276 0.123165 0.130733 0.400949 0.000147809 0.411218)
)
;

boundaryField
{
    aggregate
    {
        type            calculated;
        value           nonuniform List<symmTensor> 
24
(
(0.222999 -1.20562 1.05552 -0.269521 0.126277 0.046522)
(1.936 0.1431 -0.0295443 -0.971776 -0.00485054 -0.964226)
(-0.0202704 1.38354 0.670362 0.184352 0.0983911 -0.164082)
(0.089653 0.507489 -1.42686 0.0823005 -0.140158 -0.171954)
(1.86249 0.122245 0.0557484 -0.934137 -0.00253406 -0.928356)
(-0.00543188 1.25252 0.80041 0.111989 0.159747 -0.106557)
(0.138166 -0.982352 1.27188 -0.174611 0.146281 0.0364455)
(2.02972 0.157765 -0.0477079 -1.01563 -0.00438584 -1.0141)
(0.173561 -1.22372 -1.03776 -0.226066 -0.108628 0.052505)
(0.0671035 0.635028 -1.39275 0.0810685 -0.125841 -0.148172)
(1.89468 0.141135 0.0364344 -0.947588 0.000231553 -0.947088)
(0.181038 -1.25769 -0.778707 -0.199165 -0.11666 0.0181269)
(0.0168736 -0.740844 0.620777 -0.137726 0.0790531 0.120852)
(-1.131 -0.156789 -0.0566917 0.563764 -0.00339206 0.567233)
(-0.118321 0.822693 0.401567 0.172676 0.0937791 -0.0543543)
(-0.0160284 0.346486 -1.03818 0.0917163 -0.0843917 -0.0756878)
(-1.34736 -0.132395 -0.0555813 0.671708 -0.00155731 0.675649)
(-0.102275 0.922834 0.587834 0.118655 0.0971464 -0.0163801)
(-0.00112454 -0.820997 0.985312 -0.0344891 0.0799912 0.0356136)
(-1.60525 -0.0975748 -0.0191248 0.802808 -0.00132716 0.802441)
(-0.0134664 -0.981657 -0.801731 -0.063228 -0.041404 0.0766945)
(-0.0824002 0.502958 -1.23184 0.0785997 -0.0500936 0.00380049)
(-1.6474 -0.0718701 -0.0296697 0.824038 -0.000214765 0.823361)
(-0.0158005 -1.09486 -0.673358 -0.0278297 -0.0385922 0.0436302)
)
;
    }
    XY-Zmin
    {
        type            calculated;
        value           nonuniform List<symmTensor> 9((0.218594 -0.504737 -1.37104 -0.162476 -0.173211 -0.0561176) (0.112625 -0.137503 -1.42644 -0.0799108 -0.158868 -0.032714) (-0.134226 0.605265 -1.07965 0.133852 -0.127887 0.000374075) (-0.00223099 -0.329903 -0.80802 -0.00413454 -0.12801 0.00636553) (-0.0812457 -0.198636 -1.13658 0.0292849 -0.0680926 0.0519608) (-0.0160688 0.688881 -1.33836 0.0524515 -0.0801284 -0.0363827) (0.016354 -0.31308 -0.652667 -0.00805293 -0.0277941 -0.0083011) (0.0554646 -0.0187269 -0.691709 -0.0110695 0.0495906 -0.044395) (0.0787068 0.500351 -1.04193 -0.0607503 0.0641384 -0.0179564));
    }
    YZ-Xmin
    {
        type            calculated;
        value           nonuniform List<symmTensor> 9((0.0177451 -0.0026149 -0.00253642 0.0193554 -0.000304987 0.0198301) (0.0133015 -0.0024519 -0.00102744 0.0146969 -0.000162258 0.0150671) (0.0170346 -0.00247904 0.00253756 0.0165206 0.000189711 0.0172625) (0.0136521 -0.000835003 -0.00250813 0.0160623 -0.000269792 0.0161561) (0.00803777 -0.000798228 -0.000997832 0.00990997 1.47106e-05 0.00994173) (0.0124621 0.000278971 0.0026593 0.013077 0.000320293 0.0132586) (0.0191304 0.00304907 -0.00275256 0.0204858 -0.000337687 0.0197875) (0.0137436 0.00296457 -2.68861e-05 0.015164 0.000104398 0.0144775) (0.0187631 0.00296887 0.00271931 0.0197934 0.000355322 0.0194054));
    }
    XZ-Ymin
    {
        type            calculated;
        value           nonuniform List<symmTensor> 9((0.29338 -1.34515 -0.516189 -0.305796 -0.0708773 0.0124164) (0.261302 -1.28006 -0.166587 -0.263235 -0.0751242 0.00193298) (0.0674023 -0.935852 0.504091 -0.164083 0.00871767 0.0966807) (0.0458162 -0.801083 -0.318522 -0.134677 -0.0709807 0.0888604) (0.0349015 -0.94457 -0.139891 -0.11299 -0.0512829 0.0780888) (0.146417 -0.871064 0.468533 -0.188159 0.0316447 0.0417414) (0.0386298 -0.63992 -0.301467 -0.0569776 -0.00636965 0.0183478) (0.0770796 -0.50318 0.0339625 -0.0562206 0.0205323 -0.0208589) (0.0878201 -0.494785 0.261708 -0.0678958 0.0273729 -0.0199244));
    }
    XY-Zmax
    {
        type            calculated;
        value           nonuniform List<symmTensor> 9((0.0103629 -0.474991 0.93416 -0.0980508 0.0807011 0.0876879) (-0.096642 0.0225543 1.03539 0.00599802 0.0817609 0.090644) (-0.0976397 0.560286 1.05973 0.0844801 0.106127 0.0131597) (0.103057 -0.469018 0.902613 -0.106347 0.0870688 0.00328986) (-0.0113571 -0.0236109 1.21468 -0.0276128 0.0600987 0.0389699) (-0.103358 0.631462 1.20964 0.070773 0.0921178 0.0325848) (0.0722188 -0.292468 0.512873 -0.0246838 0.037122 -0.0475349) (0.0379779 -0.111701 0.944995 -0.0080641 -0.0364613 -0.0299138) (-0.0660759 0.670279 1.44824 -0.0134361 0.00961803 0.0795121));
    }
    XZ-Ymax
    {
        type            calculated;
        value           nonuniform List<symmTensor> 9((-0.172664 1.10038 -0.542195 0.214461 -0.0651381 -0.0417975) (-0.171577 1.10598 -0.00474877 0.221253 0.0151016 -0.049676) (-0.131079 1.09353 0.53078 0.155727 0.061555 -0.0246481) (-0.0407643 1.38777 -0.662986 0.104272 -0.0412144 -0.0635078) (-0.123613 1.32611 0.00770737 0.170071 0.0189131 -0.0464579) (-0.127875 1.24212 0.609429 0.132896 0.0603104 -0.00502059) (0.100552 1.07292 -0.565447 -0.101102 0.0337145 0.000550272) (0.0091984 1.41893 -0.0649103 -0.0330962 0.0249219 0.0238978) (-0.0583624 1.47486 0.711469 0.0081997 0.0302218 0.0501627));
    }
    YZ-Xmax
    {
        type            calculated;
        value           nonuniform List<symmTensor> 9((0.00167467 -2.0125e-05 -1.86568e-05 0.00167534 -5.65242e-07 0.00167558) (0.00220121 -6.60016e-05 4.57724e-06 0.00220507 1.6625e-06 0.00220264) (0.0404494 -0.00940141 0.00788113 0.0402494 0.000490647 0.0399138) (0.0469564 -0.00239819 -0.0176945 0.0490959 0.0011524 0.0475282) (0.0271337 -0.0112384 -0.00334716 0.0295367 -0.00236922 0.0270442) (0.138149 -0.0173331 0.0587684 0.141084 -0.00453942 0.136979) (0.223008 0.0618608 -0.0747509 0.214532 0.00328395 0.219762) (0.199587 0.0869997 -0.00863813 0.191397 -0.00182297 0.197379) (0.394981 0.119269 0.13179 0.392151 0.000147809 0.40242));
    }
}


// ************************************************************************* //
