/*--------------------------------*- C++ -*----------------------------------*\
| =========                 |                                                 |
| \\      /  F ield         | OpenFOAM: The Open Source CFD Toolbox           |
|  \\    /   O peration     | Version:  2312                                  |
|   \\  /    A nd           | Website:  www.openfoam.com                      |
|    \\/     M anipulation  |                                                 |
\*---------------------------------------------------------------------------*/
FoamFile
{
    version     2.0;
    format      ascii;
    arch        "LSB;label=32;scalar=64";
    class       volVectorField;
    location    "250";
    object      U;
}
// * * * * * * * * * * * * * * * * * * * * * * * * * * * * * * * * * * * * * //

dimensions      [0 1 -1 0 0 0 0];

internalField   nonuniform List<vector> 
27
(
(30.9491 3.92267 0.214972)
(30.3193 3.5004 1.45594)
(25.6166 2.80995 1.34962)
(31.7884 3.58291 -0.135105)
(30.6321 3.33736 1.04911)
(27.1887 1.79891 1.19403)
(27.4433 3.21788 -0.00516946)
(27.6285 3.39114 0.174531)
(27.2863 2.38844 0.132827)
(23.2525 3.579 0.876552)
(25.5801 2.60077 1.10378)
(24.6498 2.80057 0.467484)
(28.1122 1.84443 -0.335519)
(28.5315 1.26668 0.346864)
(29.1841 1.43315 1.04026)
(30.9022 1.79578 0.11736)
(30.193 2.48853 0.464523)
(29.3771 1.87161 0.365402)
(21.0713 0.960058 -0.17056)
(18.4432 0.534179 -0.790424)
(18.1925 1.19815 -0.551429)
(21.5486 -1.65812 -0.126501)
(22.9325 -1.67634 -0.490598)
(25.4707 -0.636189 0.00340979)
(26.9726 -1.62755 0.266759)
(31.5119 -0.801245 0.973336)
(32.386 -0.00531885 0.874825)
)
;

boundaryField
{
    aggregate
    {
        type            noSlip;
    }
    XY-Zmin
    {
        type            noSlip;
    }
    YZ-Xmin
    {
        type            freestreamVelocity;
        freestreamValue uniform (25.75 3.62 0);
        value           nonuniform List<vector> 9((25.7753 3.62147 0.00104547) (25.7722 3.61942 0.00707447) (25.7494 3.61606 0.00655734) (25.7793 3.61982 -0.000656224) (25.7737 3.61863 0.00509475) (25.757 3.61118 0.00578243) (25.7582 3.61805 -2.51262e-05) (25.7591 3.61889 0.000848708) (25.7575 3.61403 0.00064432));
    }
    XZ-Ymin
    {
        type            noSlip;
    }
    XY-Zmax
    {
        type            noSlip;
    }
    XZ-Ymax
    {
        type            noSlip;
    }
    YZ-Xmax
    {
        type            freestreamVelocity;
        freestreamValue uniform (25.75 3.62 0);
        value           nonuniform List<vector> 9((21.0734 0.961223 -0.170485) (18.4604 0.541405 -0.788573) (18.2168 1.20595 -0.549652) (21.574 -1.62617 -0.125736) (22.9518 -1.64004 -0.487235) (25.472 -0.615558 0.00339326) (26.9652 -1.59575 0.265142) (31.4914 -0.785507 0.969872) (32.3748 0.000758463 0.873359));
    }
}


// ************************************************************************* //
