/*--------------------------------*- C++ -*----------------------------------*\
| =========                 |                                                 |
| \\      /  F ield         | OpenFOAM: The Open Source CFD Toolbox           |
|  \\    /   O peration     | Version:  2312                                  |
|   \\  /    A nd           | Website:  www.openfoam.com                      |
|    \\/     M anipulation  |                                                 |
\*---------------------------------------------------------------------------*/
FoamFile
{
    version     2.0;
    format      ascii;
    arch        "LSB;label=32;scalar=64";
    class       volScalarField;
    location    "200";
    object      magR;
}
// * * * * * * * * * * * * * * * * * * * * * * * * * * * * * * * * * * * * * //

dimensions      [0 2 -2 0 0 0 0];

internalField   nonuniform List<scalar> 
27
(
0.0545975
0.038668
0.0507895
0.0412169
0.0156999
0.0365979
0.0550941
0.035572
0.0463182
0.0225305
0.00370298
0.000603961
0.00265807
0.00300418
0.0121013
0.0192681
0.0208
0.0441543
0.00216545
0.000451732
0.0577449
0.0805981
0.0513913
0.28868
0.467192
0.448203
0.883169
)
;

boundaryField
{
    aggregate
    {
        type            calculated;
        value           nonuniform List<scalar> 
24
(
2.30037
2.38011
2.19268
2.16117
2.28898
2.11988
2.29327
2.4968
2.2927
2.17961
2.32963
2.11573
1.38376
1.40512
1.31929
1.55704
1.66262
1.56142
1.81797
1.97104
1.7962
1.88648
2.02063
1.81938
)
;
    }
    XY-Zmin
    {
        type            calculated;
        value           nonuniform List<scalar> 9(2.09912 2.04399 1.76992 1.24752 1.63768 2.1328 1.02466 0.983714 1.64021);
    }
    YZ-Xmin
    {
        type            calculated;
        value           nonuniform List<scalar> 9(0.0333089 0.025182 0.0297716 0.0268238 0.0162762 0.0227289 0.0348017 0.0254171 0.0339567);
    }
    XZ-Ymin
    {
        type            calculated;
        value           nonuniform List<scalar> 9(2.08364 1.86587 1.51684 1.23474 1.35974 1.42026 1.00296 0.720472 0.800519);
    }
    XY-Zmax
    {
        type            calculated;
        value           nonuniform List<scalar> 9(1.4923 1.47514 1.70683 1.45137 1.72094 1.93851 0.841425 1.34758 2.25923);
    }
    XZ-Ymax
    {
        type            calculated;
        value           nonuniform List<scalar> 9(1.75945 1.58988 1.7334 2.17968 1.88798 1.96724 1.72171 2.00949 2.31739);
    }
    YZ-Xmax
    {
        type            calculated;
        value           nonuniform List<scalar> 9(0.00226775 0.000458478 0.0575791 0.0791646 0.0535701 0.284724 0.451838 0.422219 0.872976);
    }
}


// ************************************************************************* //
