/*--------------------------------*- C++ -*----------------------------------*\
| =========                 |                                                 |
| \\      /  F ield         | OpenFOAM: The Open Source CFD Toolbox           |
|  \\    /   O peration     | Version:  2312                                  |
|   \\  /    A nd           | Website:  www.openfoam.com                      |
|    \\/     M anipulation  |                                                 |
\*---------------------------------------------------------------------------*/
FoamFile
{
    version     2.0;
    format      ascii;
    arch        "LSB;label=32;scalar=64";
    class       volVectorField;
    location    "200";
    object      momentError;
}
// * * * * * * * * * * * * * * * * * * * * * * * * * * * * * * * * * * * * * //

dimensions      [0 1 -2 0 0 0 0];

internalField   nonuniform List<vector> 
27
(
(0.0046547 -0.00715265 -0.0063112)
(-0.00519898 -0.0188214 0.000673709)
(-0.00351744 -0.0135833 0.0135285)
(0.162317 -0.00795738 -0.204312)
(-0.0152831 -0.0172236 -0.00348984)
(1.52987 0.0444333 -1.627)
(-1.16785 -0.800689 2.3241)
(2.39643 0.0814415 -2.48891)
(2.23475 0.257592 -0.448781)
(-0.0503183 -0.028294 -0.0232158)
(-61.6995 -7.42882 -3.60418)
(-0.113347 0.0406782 -0.0943626)
(-89.6936 -19.9452 21.8632)
(-94.969 -3.15839 -29.4339)
(-38.4026 -1.68548 -17.7298)
(-56.7016 -7.96473 23.2177)
(-156.342 -24.4569 -27.8479)
(-53.4596 -23.8211 -23.4066)
(-453.188 -128.066 -39.4148)
(-1164.68 -84.0296 -97.3147)
(-898.378 -69.9746 -101.08)
(-1664.22 -192.957 84.9486)
(-1512.21 -345.426 -131.039)
(-918.49 -374.478 -233.646)
(-1061.05 -649.704 -57.8909)
(-50.9304 -809.639 -45.0188)
(547.323 -544.956 38.4417)
)
;

boundaryField
{
    aggregate
    {
        type            calculated;
        value           nonuniform List<vector> 
24
(
(-86.9107 -70.564 102.517)
(625.833 -11.0234 -0.610084)
(-86.9107 17.7326 15.9922)
(437.486 -271.609 578.898)
(1159.08 50.4904 21.0091)
(437.486 135.74 70.229)
(-444.153 -97.9537 84.5903)
(436.537 -50.0875 1.68393)
(-444.153 -345.199 -168.695)
(799.183 -186.376 500.97)
(1676.53 87.0559 27.3682)
(799.183 -61.6933 -58.5131)
(746.31 92.4789 66.86)
(1220.15 114.85 28.1123)
(746.31 266.883 115.888)
(-1199.57 -5.54653 -256.335)
(-1085.2 -123.114 -52.704)
(-1199.57 -327.461 -170.686)
(-1973.35 -229.368 193.025)
(-1906.64 -143.529 44.3478)
(-1973.35 -556.121 -193.857)
(-1076.98 -27.9889 -73.8737)
(-935.446 -46.7537 -41.3719)
(-1076.98 -626.067 -375.842)
)
;
    }
    XY-Zmin
    {
        type            calculated;
        value           nonuniform List<vector> 9((-86.9107 -11.0234 119.119) (-444.153 -50.0875 -85.7912) (726.708 84.5477 11.4348) (746.31 114.85 154.637) (-1973.35 -143.529 -45.1835) (-1295.87 -79.971 45.8827) (-249.497 -118.786 -217.19) (-539.174 -279.519 38.5584) (-449.019 -686.644 30.6524));
    }
    YZ-Xmin
    {
        type            calculated;
        value           nonuniform List<vector> 9((708.584 -0.853092 -0.607147) (794.469 -1.73587 20.907) (-6.45015 4.44692 -7.4182) (808 0.507685 1.67476) (1017.45 -7.35518 27.2353) (360.963 -9.42724 4.58341) (801.026 -11.4134 2.18727) (817.525 -4.74136 1.18929) (864.594 -38.9718 3.7839));
    }
    XZ-Ymin
    {
        type            calculated;
        value           nonuniform List<vector> 9((-86.9107 -41.8078 -0.610084) (437.486 -186.362 21.0091) (-141.751 -321.628 -7.45449) (746.31 244.512 28.1123) (-1199.57 -209.893 -52.704) (-457.181 -1.78957 -8.76351) (-249.497 -481.955 -41.0642) (-657.764 -296.185 -119.04) (-1000.84 -243.593 -97.9738));
    }
    XY-Zmax
    {
        type            calculated;
        value           nonuniform List<vector> 9((-141.751 -15.5623 453.329) (143.63 9.44644 449.174) (875.664 76.7127 67.792) (-457.181 -51.8877 -434.623) (-1531.59 -75.0107 -331.768) (-878.221 -76.3601 68.8521) (-1000.84 -76.722 -112.292) (-137.747 -393.976 -187.911) (614.219 -544.968 98.4659));
    }
    XZ-Ymax
    {
        type            calculated;
        value           nonuniform List<vector> 9((726.708 -208.312 2.1866) (587.511 -101.562 1.20726) (875.664 -455.918 3.80453) (-1295.87 -667.443 18.509) (-710.245 -518.3 -36.3699) (-878.221 -152.69 -33.6577) (-449.019 -645.301 -51.8274) (190.094 -652.158 -37.5739) (614.219 -368.78 40.2474));
    }
    YZ-Xmax
    {
        type            calculated;
        value           nonuniform List<vector> 9((-443.465 -128.077 -39.4155) (-1851.5 -84.2282 -97.3656) (-1198.34 -69.9306 -101.07) (-2919.34 -194.625 84.9087) (-2773.9 -348.273 -131.302) (-1767.49 -375.11 -233.645) (-1597.01 -650.426 -57.8542) (-368.438 -809.76 -44.9923) (301.18 -544.968 38.4447));
    }
}


// ************************************************************************* //
