/*--------------------------------*- C++ -*----------------------------------*\
| =========                 |                                                 |
| \\      /  F ield         | OpenFOAM: The Open Source CFD Toolbox           |
|  \\    /   O peration     | Version:  2312                                  |
|   \\  /    A nd           | Website:  www.openfoam.com                      |
|    \\/     M anipulation  |                                                 |
\*---------------------------------------------------------------------------*/
FoamFile
{
    version     2.0;
    format      ascii;
    arch        "LSB;label=32;scalar=64";
    class       volScalarField;
    location    "200";
    object      nuTilda;
}
// * * * * * * * * * * * * * * * * * * * * * * * * * * * * * * * * * * * * * //

dimensions      [0 2 -1 0 0 0 0];

internalField   nonuniform List<scalar> 
27
(
5.54094e-05
5.51796e-05
5.2512e-05
5.66635e-05
5.11281e-05
5.118e-05
5.15841e-05
4.82278e-05
4.81154e-05
3.8829e-05
1.73165e-05
5.45345e-06
1.38468e-05
1.96055e-05
2.77332e-05
2.85743e-05
3.54361e-05
4.52077e-05
1.20031e-05
6.38092e-06
6.66779e-05
9.7462e-05
0.000188125
0.000276165
0.000291308
0.000377006
0.000494377
)
;

boundaryField
{
    aggregate
    {
        type            fixedValue;
        value           uniform 0;
    }
    XY-Zmin
    {
        type            fixedValue;
        value           uniform 0;
    }
    YZ-Xmin
    {
        type            freestream;
        freestreamValue uniform 4e-05;
        value           uniform 4e-05;
    }
    XZ-Ymin
    {
        type            fixedValue;
        value           uniform 0;
    }
    XY-Zmax
    {
        type            fixedValue;
        value           uniform 0;
    }
    XZ-Ymax
    {
        type            fixedValue;
        value           uniform 0;
    }
    YZ-Xmax
    {
        type            freestream;
        freestreamValue uniform 4e-05;
        value           nonuniform List<scalar> 9(1.20031e-05 6.38092e-06 6.66779e-05 9.7462e-05 0.000188125 0.000276165 0.000291308 0.000377006 0.000494377);
    }
}


// ************************************************************************* //
