/*--------------------------------*- C++ -*----------------------------------*\
| =========                 |                                                 |
| \\      /  F ield         | OpenFOAM: The Open Source CFD Toolbox           |
|  \\    /   O peration     | Version:  2312                                  |
|   \\  /    A nd           | Website:  www.openfoam.com                      |
|    \\/     M anipulation  |                                                 |
\*---------------------------------------------------------------------------*/
FoamFile
{
    version     2.0;
    format      ascii;
    arch        "LSB;label=32;scalar=64";
    class       volScalarField;
    location    "200";
    object      p;
}
// * * * * * * * * * * * * * * * * * * * * * * * * * * * * * * * * * * * * * //

dimensions      [0 2 -2 0 0 0 0];

internalField   nonuniform List<scalar> 
27
(
99.33
69.7313
-18.8909
106.867
128.284
42.3223
163.496
161.646
148.849
-68.2651
-99.5436
-17.6382
-100.011
-78.0905
-27.6579
13.5848
8.11011
-12.3919
-23.9312
11.294
14.1576
48.7026
56.6608
47.5317
40.4338
23.9379
12.2942
)
;

boundaryField
{
    aggregate
    {
        type            zeroGradient;
    }
    XY-Zmin
    {
        type            zeroGradient;
    }
    YZ-Xmin
    {
        type            freestreamPressure;
        freestreamValue uniform 0;
        value           nonuniform List<scalar> 9(98.8469 69.3924 -18.7991 106.348 127.661 42.1174 162.701 160.86 148.127);
    }
    XZ-Ymin
    {
        type            zeroGradient;
    }
    XY-Zmax
    {
        type            zeroGradient;
    }
    XZ-Ymax
    {
        type            zeroGradient;
    }
    YZ-Xmax
    {
        type            freestreamPressure;
        freestreamValue uniform 0;
        value           nonuniform List<scalar> 9(-0.0104698 0.0264459 0.0456231 0.294787 0.388422 0.230409 0.245004 0.0851678 0.0205949);
    }
}


// ************************************************************************* //
