/*--------------------------------*- C++ -*----------------------------------*\
| =========                 |                                                 |
| \\      /  F ield         | OpenFOAM: The Open Source CFD Toolbox           |
|  \\    /   O peration     | Version:  2312                                  |
|   \\  /    A nd           | Website:  www.openfoam.com                      |
|    \\/     M anipulation  |                                                 |
\*---------------------------------------------------------------------------*/
FoamFile
{
    version     2.0;
    format      ascii;
    arch        "LSB;label=32;scalar=64";
    class       surfaceScalarField;
    location    "200";
    object      phi;
}
// * * * * * * * * * * * * * * * * * * * * * * * * * * * * * * * * * * * * * //

dimensions      [0 3 -1 0 0 0 0];

oriented        oriented;

internalField   nonuniform List<scalar> 
54
(
0.00453427
0.0232242
0.028417
-0.00213534
0.0208331
0.0207949
0.0218836
0.0273504
0.000301425
0.032008
0.00301305
0.011499
0.2221
0.0139857
0.230656
-0.00440715
0.253346
0.248528
0.0271713
0.000542953
0.246172
0.0157262
0.00197046
0.293893
0.0232411
0.310763
0.0044622
0.0023912
0.307675
0.00998386
0.00607321
0.303727
0.0143145
0.209029
-0.0100733
0.1944
-0.00430282
0.207155
0.212065
-0.0151465
-0.00502588
0.220371
-0.015478
-0.000483938
0.253626
-0.0046706
0.272734
-0.00964457
0.00754405
0.295632
-0.00442249
0.00961507
0.29604
0.00352167
)
;

boundaryField
{
    aggregate
    {
        type            calculated;
        value           uniform 0;
    }
    XY-Zmin
    {
        type            calculated;
        value           uniform 0;
    }
    YZ-Xmin
    {
        type            calculated;
        value           nonuniform List<scalar> 9(-0.257509 -0.257553 -0.257539 -0.257556 -0.257448 -0.257487 -0.257191 -0.257201 -0.257205);
    }
    XZ-Ymin
    {
        type            calculated;
        value           uniform 0;
    }
    XY-Zmax
    {
        type            calculated;
        value           uniform 0;
    }
    XZ-Ymax
    {
        type            calculated;
        value           uniform 0;
    }
    YZ-Xmax
    {
        type            calculated;
        value           nonuniform List<scalar> 9(0.243915 0.231593 0.201891 0.263799 0.28322 0.275602 0.278237 0.296787 0.311242);
    }
}


// ************************************************************************* //
