/*--------------------------------*- C++ -*----------------------------------*\
| =========                 |                                                 |
| \\      /  F ield         | OpenFOAM: The Open Source CFD Toolbox           |
|  \\    /   O peration     | Version:  2312                                  |
|   \\  /    A nd           | Website:  www.openfoam.com                      |
|    \\/     M anipulation  |                                                 |
\*---------------------------------------------------------------------------*/
FoamFile
{
    version     2.0;
    format      ascii;
    arch        "LSB;label=32;scalar=64";
    class       volSymmTensorField;
    location    "200";
    object      turbulenceProperties:devReff;
}
// * * * * * * * * * * * * * * * * * * * * * * * * * * * * * * * * * * * * * //

dimensions      [0 2 -2 0 0 0 0];

internalField   nonuniform List<symmTensor> 
27
(
(0.00300488 -0.00684559 -0.00706642 -0.00216347 -0.000849447 -0.00084141)
(0.00270797 -0.00642414 -0.00228049 -0.00186533 -0.000448282 -0.000842644)
(0.000357094 -0.00643011 0.00682405 -0.00111054 0.000476666 0.000753449)
(0.00170656 -0.00192566 -0.00732317 -0.000989843 -0.000784992 -0.000716718)
(0.00162031 -0.00153527 -0.00199111 -0.000848121 3.51591e-05 -0.000772188)
(-0.000987967 0.000277858 0.00667101 0.000276465 0.000766984 0.000711502)
(-0.00164443 0.00748451 -0.0067046 0.00167058 -0.000820556 -2.61494e-05)
(-0.00137619 0.00642438 -5.1655e-05 0.00142631 0.000224542 -5.01211e-05)
(-0.00105619 0.00615229 0.0058283 0.000943652 0.00076113 0.000112536)
(-0.000131847 -0.00314099 -0.00306092 -0.000149957 -0.000422211 0.000281804)
(-6.85264e-05 -0.00217322 -0.000819772 -0.000116036 -0.000118791 0.000184562)
(0.000582981 -0.00261174 0.00260905 -0.000583079 0.000194322 9.88687e-08)
(-0.000389902 -0.00107394 -0.00231924 0.000207675 -9.21657e-05 0.000182227)
(-0.000486419 -0.000976129 -0.000965416 0.000267114 -1.51775e-05 0.000219305)
(4.40921e-05 -0.000132507 0.00340347 -4.71391e-05 0.000161631 3.04703e-06)
(-8.29369e-05 0.00374574 -0.00360496 0.000289583 -0.000265389 -0.000206646)
(-0.000520782 0.00437398 5.05382e-05 0.00053556 5.08711e-05 -1.47776e-05)
(-0.000920894 0.00587481 0.00566986 0.000698969 0.000555634 0.000221925)
(9.5495e-05 -0.00200707 -0.00193263 -6.0979e-05 -6.01979e-05 -3.4516e-05)
(0.000439672 -0.00196346 0.000241909 -0.000181754 5.21774e-05 -0.000257917)
(0.00197297 -0.00845883 0.0075693 -0.000829677 0.000458497 -0.00114329)
(0.00275181 -0.0009391 -0.017944 -0.000584701 0.0011627 -0.0021671)
(0.00647785 -0.00951555 -0.00288604 -0.00185771 -0.00262585 -0.00462014)
(0.00629323 -0.0171252 0.0695994 -0.000765004 -0.00526213 -0.00552822)
(0.0122984 0.0770819 -0.0871103 -0.00918805 0.00381934 -0.00311031)
(0.000679511 0.110935 -0.0113718 -0.00393704 -0.00219023 0.00325752)
(-0.0120315 0.150173 0.159402 -0.00024467 0.000174034 0.0122761)
)
;

boundaryField
{
    aggregate
    {
        type            calculated;
        value           nonuniform List<symmTensor> 
24
(
(0.224467 -1.21355 1.06247 -0.271296 0.127108 0.0468296)
(2.05773 0.152099 -0.0314009 -1.03288 -0.00515558 -1.02485)
(-0.0204477 1.39559 0.676198 0.185958 0.0992492 -0.16551)
(0.0904468 0.511985 -1.4395 0.0830299 -0.1414 -0.173477)
(1.98175 0.130073 0.059318 -0.99395 -0.00269633 -0.987799)
(-0.00546889 1.26091 0.805767 0.11274 0.160817 -0.107271)
(0.139344 -0.990727 1.28272 -0.176101 0.147529 0.0367573)
(2.15458 0.167471 -0.0506419 -1.0781 -0.00465563 -1.07648)
(0.17468 -1.2316 -1.04445 -0.227524 -0.109329 0.052843)
(0.0675498 0.639247 -1.402 0.0816074 -0.126678 -0.149157)
(2.01504 0.150102 0.0387494 -1.00779 0.000246255 -1.00726)
(0.182631 -1.26875 -0.785552 -0.200917 -0.117686 0.0182864)
(0.0170128 -0.746994 0.625931 -0.138868 0.0797091 0.121855)
(-1.22207 -0.169413 -0.0612564 0.609159 -0.0036651 0.612907)
(-0.119621 0.831736 0.405981 0.174573 0.0948096 -0.0549513)
(-0.0161919 0.350025 -1.04878 0.0926518 -0.0852496 -0.0764599)
(-1.44765 -0.142247 -0.0597192 0.72171 -0.00167318 0.725944)
(-0.103063 0.929954 0.592368 0.119566 0.0978944 -0.0165036)
(-0.00113411 -0.828775 0.994644 -0.0348129 0.0807485 0.035947)
(-1.7156 -0.104281 -0.0204374 0.857996 -0.00141838 0.857604)
(-0.0135638 -0.988684 -0.807469 -0.06368 -0.0416976 0.0772437)
(-0.0829826 0.506514 -1.24056 0.0791539 -0.0504456 0.0038287)
(-1.7593 -0.0767494 -0.0316842 0.880011 -0.000229339 0.879289)
(-0.0159501 -1.10511 -0.679663 -0.0280875 -0.0389517 0.0440376)
)
;
    }
    XY-Zmin
    {
        type            calculated;
        value           nonuniform List<symmTensor> 9((0.219659 -0.507194 -1.37771 -0.163267 -0.174056 -0.056392) (0.113168 -0.138164 -1.43331 -0.0802957 -0.159633 -0.0328722) (-0.134912 0.608345 -1.08514 0.134535 -0.128539 0.000377356) (-0.0022455 -0.331934 -0.812995 -0.00415937 -0.128797 0.00640487) (-0.0816807 -0.199702 -1.14267 0.0294407 -0.0684558 0.0522401) (-0.016136 0.692079 -1.34457 0.0526924 -0.0804959 -0.0365564) (0.016457 -0.315075 -0.656827 -0.00810667 -0.0279701 -0.0083503) (0.0558122 -0.0188426 -0.696023 -0.0111332 0.049891 -0.0446789) (0.0791339 0.502939 -1.04731 -0.0610592 0.0644914 -0.0180747));
    }
    YZ-Xmin
    {
        type            calculated;
        value           nonuniform List<symmTensor> 9((-0.00246359 -0.0052298 -0.00507284 0.000757113 -0.000609981 0.00170647) (-0.00210742 -0.0049038 -0.00205488 0.00068354 -0.000324517 0.00142388) (0.000190735 -0.00495809 0.00507512 -0.000837237 0.000379426 0.000646501) (-0.00327614 -0.00167001 -0.00501627 0.0015442 -0.000539585 0.00173194) (-0.00251742 -0.00159646 -0.00199566 0.00122694 2.94202e-05 0.00129048) (-0.000940894 0.000557938 0.00531858 0.000288776 0.000640584 0.000652118) (-0.00134163 0.00609813 -0.00550511 0.00136909 -0.000675381 -2.74542e-05) (-0.0014362 0.00592912 -5.37684e-05 0.00140454 0.000208795 3.16552e-05) (-0.00111502 0.00593771 0.00543858 0.000945508 0.000710657 0.000169507));
    }
    XZ-Ymin
    {
        type            calculated;
        value           nonuniform List<symmTensor> 9((0.294823 -1.35176 -0.518726 -0.307301 -0.0712269 0.0124777) (0.262597 -1.2864 -0.167413 -0.264541 -0.0754964 0.00194345) (0.0677656 -0.940893 0.506807 -0.164968 0.00876512 0.097202) (0.0461001 -0.806062 -0.320501 -0.135512 -0.071421 0.0894124) (0.0350974 -0.94997 -0.140692 -0.11363 -0.0515759 0.0785331) (0.14723 -0.875914 0.471143 -0.189204 0.0318179 0.0419735) (0.0388743 -0.644 -0.303389 -0.0573391 -0.00640678 0.0184649) (0.0776256 -0.506769 0.0342044 -0.0566163 0.0206793 -0.0210093) (0.08845 -0.498346 0.263593 -0.0683798 0.0275698 -0.0200703));
    }
    XY-Zmax
    {
        type            calculated;
        value           nonuniform List<symmTensor> 9((0.0104188 -0.477549 0.939192 -0.0985793 0.0811364 0.0881605) (-0.0971384 0.0226707 1.04072 0.00602782 0.0821817 0.0911106) (-0.0981442 0.563158 1.06516 0.0849138 0.106673 0.0132305) (0.103628 -0.471628 0.907641 -0.106939 0.0875517 0.00331027) (-0.011408 -0.0237283 1.22058 -0.027745 0.0603926 0.0391531) (-0.103841 0.634523 1.2155 0.0711157 0.0925506 0.0327258) (0.0727391 -0.29457 0.516565 -0.02486 0.0373898 -0.0478791) (0.038196 -0.112304 0.950124 -0.00809052 -0.036651 -0.0301055) (-0.0663332 0.673251 1.45465 -0.0134911 0.00961682 0.0798243));
    }
    XZ-Ymax
    {
        type            calculated;
        value           nonuniform List<symmTensor> 9((-0.173545 1.10598 -0.544954 0.215555 -0.0654707 -0.04201) (-0.172447 1.11157 -0.00477254 0.222374 0.0151778 -0.0499277) (-0.131754 1.09913 0.533501 0.156528 0.0618729 -0.0247736) (-0.0409459 1.39421 -0.666067 0.104749 -0.0414001 -0.063803) (-0.124193 1.33238 0.00774275 0.170862 0.0190041 -0.0466698) (-0.128479 1.24815 0.612386 0.133524 0.0605872 -0.00504581) (0.101092 1.07846 -0.568371 -0.101646 0.0339169 0.000554143) (0.00925668 1.42538 -0.0652034 -0.0332952 0.0250392 0.0240385) (-0.0585842 1.48139 0.714624 0.00819358 0.0303115 0.0503906));
    }
    YZ-Xmax
    {
        type            calculated;
        value           nonuniform List<symmTensor> 9((-5.61692e-05 -0.00214352 -0.00198715 1.48531e-05 -6.01979e-05 4.13161e-05) (-5.53549e-05 -0.00207119 0.000143637 6.5759e-05 5.21774e-05 -1.04041e-05) (0.000229049 -0.00878412 0.00736373 4.2282e-05 0.000458497 -0.000271331) (-0.000912189 -0.00242017 -0.0178577 0.0012473 0.0011627 -0.000335107) (-0.000855345 -0.0124555 -0.00370961 0.00180889 -0.00262585 -0.000953544) (-0.000682435 -0.0200962 0.0681392 0.00272283 -0.00526213 -0.00204039) (0.00454218 0.0719007 -0.0868829 -0.00530996 0.00381934 0.000767778) (0.00416434 0.104549 -0.0103802 -0.00567945 -0.00219023 0.00151511) (-0.00187149 0.145422 0.160689 -0.00532466 0.000174034 0.00719615));
    }
}


// ************************************************************************* //
