/*--------------------------------*- C++ -*----------------------------------*\
| =========                 |                                                 |
| \\      /  F ield         | OpenFOAM: The Open Source CFD Toolbox           |
|  \\    /   O peration     | Version:  2312                                  |
|   \\  /    A nd           | Website:  www.openfoam.com                      |
|    \\/     M anipulation  |                                                 |
\*---------------------------------------------------------------------------*/
FoamFile
{
    version     2.0;
    format      ascii;
    arch        "LSB;label=32;scalar=64";
    class       volSymmTensorField;
    location    "200";
    object      turbulenceProperties:R;
}
// * * * * * * * * * * * * * * * * * * * * * * * * * * * * * * * * * * * * * //

dimensions      [0 2 -2 0 0 0 0];

internalField   nonuniform List<symmTensor> 
27
(
(0.0329896 -0.00438771 -0.00452925 0.0296769 -0.000544456 0.0305243)
(0.0237318 -0.00409888 -0.00145505 0.0208138 -0.000286023 0.0214663)
(0.0291689 -0.00387093 0.00410808 0.0282854 0.000286953 0.0294075)
(0.0245509 -0.00126384 -0.00480628 0.0227812 -0.0005152 0.0229604)
(0.00990295 -0.000892936 -0.00115806 0.00846728 2.0449e-05 0.00851144)
(0.0203071 0.000161825 0.0038852 0.0210435 0.000446692 0.0212969)
(0.0304598 0.00440434 -0.0039454 0.0324105 -0.000482866 0.0314121)
(0.019599 0.00343745 -2.76387e-05 0.0210985 0.000120144 0.0203086)
(0.0259173 0.00328014 0.0031074 0.0269836 0.000405802 0.0265404)
(0.0128991 -0.00110908 -0.00108081 0.0128927 -0.000149082 0.0130451)
(0.00213576 -5.25156e-05 -1.98097e-05 0.00213462 -2.87056e-06 0.00214188)
(0.00034884 -6.44963e-07 6.44299e-07 0.000348552 4.79874e-08 0.000348696)
(0.00153055 -1.08389e-05 -2.34074e-05 0.00153658 -9.30199e-07 0.00153633)
(0.00171496 -3.793e-05 -3.75138e-05 0.00174424 -5.8976e-07 0.00174239)
(0.00698253 -1.78802e-05 0.000459255 0.00697022 2.18102e-05 0.00697699)
(0.011094 0.000557509 -0.000536555 0.0111495 -3.95001e-05 0.0110756)
(0.0118195 0.00123141 1.4228e-05 0.0121169 1.43218e-05 0.0119619)
(0.0248436 0.00282702 0.00272839 0.0256231 0.000267377 0.0253936)
(0.0012507 -1.15178e-05 -1.10906e-05 0.0012498 -3.45453e-07 0.00124995)
(0.00026101 -9.08373e-07 1.11917e-07 0.000260723 2.41393e-08 0.000260687)
(0.0340679 -0.00635502 0.00568674 0.0319623 0.000344464 0.0317267)
(0.047091 -0.000822134 -0.015709 0.0441701 0.00101788 0.0427847)
(0.0343684 -0.00901082 -0.00273296 0.026475 -0.00248657 0.0238591)
(0.162766 -0.0165169 0.0671274 0.155958 -0.00507523 0.151364)
(0.265355 0.0744879 -0.0841788 0.244592 0.00369081 0.250465)
(0.243737 0.10805 -0.011076 0.23924 -0.00213327 0.246248)
(0.466941 0.147187 0.156232 0.478494 0.000170573 0.490766)
)
;

boundaryField
{
    aggregate
    {
        type            calculated;
        value           nonuniform List<symmTensor> 
24
(
(0.222999 -1.20562 1.05552 -0.269523 0.126277 0.0465235)
(1.936 0.143101 -0.0295433 -0.971775 -0.00485059 -0.964226)
(-0.0202712 1.38354 0.670362 0.184353 0.0983925 -0.164082)
(0.0896527 0.507489 -1.42686 0.0823009 -0.140159 -0.171954)
(1.86249 0.122246 0.0557484 -0.934136 -0.00253407 -0.928355)
(-0.00543252 1.25252 0.800409 0.11199 0.159748 -0.106558)
(0.138166 -0.98235 1.27188 -0.174612 0.146282 0.0364466)
(2.02972 0.157766 -0.0477072 -1.01562 -0.00438584 -1.0141)
(0.173562 -1.22372 -1.03776 -0.226067 -0.108629 0.0525047)
(0.067104 0.635028 -1.39274 0.0810688 -0.125842 -0.148173)
(1.89467 0.141136 0.0364347 -0.947587 0.000231545 -0.947087)
(0.181039 -1.25769 -0.778706 -0.199166 -0.11666 0.018127)
(0.0168727 -0.740843 0.620777 -0.137724 0.0790528 0.120852)
(-1.131 -0.156788 -0.0566915 0.563764 -0.00339197 0.567232)
(-0.118321 0.822693 0.401567 0.172675 0.0937787 -0.0543538)
(-0.0160282 0.346487 -1.03818 0.0917153 -0.0843879 -0.0756871)
(-1.34736 -0.132392 -0.0555818 0.671709 -0.00155726 0.67565)
(-0.102274 0.922835 0.587834 0.118651 0.097145 -0.0163772)
(-0.00112347 -0.820997 0.98531 -0.0344862 0.0799906 0.0356096)
(-1.60525 -0.097573 -0.0191228 0.802807 -0.00132714 0.80244)
(-0.0134674 -0.981657 -0.80173 -0.0632274 -0.0414013 0.0766947)
(-0.0823994 0.502955 -1.23184 0.0785976 -0.0500911 0.00380179)
(-1.6474 -0.0718676 -0.0296689 0.824036 -0.000214751 0.823359)
(-0.0158021 -1.09486 -0.673355 -0.0278268 -0.0385903 0.0436289)
)
;
    }
    XY-Zmin
    {
        type            calculated;
        value           nonuniform List<symmTensor> 9((0.218595 -0.504737 -1.37103 -0.162476 -0.173212 -0.0561188) (0.112626 -0.137502 -1.42644 -0.079911 -0.158869 -0.0327147) (-0.134229 0.605265 -1.07965 0.133853 -0.127889 0.000375446) (-0.00223175 -0.329902 -0.808019 -0.00413391 -0.128009 0.00636566) (-0.0812459 -0.198639 -1.13658 0.0292839 -0.0680913 0.051962) (-0.0160616 0.688891 -1.33838 0.0524497 -0.080125 -0.036388) (0.0163527 -0.313079 -0.652667 -0.00805533 -0.0277929 -0.00829741) (0.0554657 -0.0187256 -0.691703 -0.0110641 0.0495813 -0.0444016) (0.0787258 0.500345 -1.04191 -0.0607443 0.0641587 -0.0179815));
    }
    YZ-Xmin
    {
        type            calculated;
        value           nonuniform List<symmTensor> 9((0.0177451 -0.0026149 -0.00253642 0.0193554 -0.000304991 0.0198301) (0.0133015 -0.0024519 -0.00102744 0.0146969 -0.000162259 0.0150671) (0.0170346 -0.00247904 0.00253756 0.0165207 0.000189713 0.0172625) (0.0136521 -0.000835006 -0.00250813 0.0160622 -0.000269793 0.0161561) (0.00803775 -0.000798229 -0.000997832 0.00990993 1.47101e-05 0.0099417) (0.0124621 0.000278969 0.00265929 0.0130769 0.000320292 0.0132586) (0.0191304 0.00304907 -0.00275256 0.0204858 -0.00033769 0.0197875) (0.0137435 0.00296456 -2.68842e-05 0.0151639 0.000104398 0.0144775) (0.018763 0.00296886 0.00271929 0.0197933 0.000355328 0.0194053));
    }
    XZ-Ymin
    {
        type            calculated;
        value           nonuniform List<symmTensor> 9((0.293381 -1.34515 -0.516189 -0.305797 -0.0708786 0.0124167) (0.261302 -1.28006 -0.166587 -0.263236 -0.0751242 0.00193387) (0.0674025 -0.935851 0.504091 -0.164084 0.00871815 0.0966811) (0.0458153 -0.801082 -0.318521 -0.134675 -0.0709797 0.08886) (0.0348978 -0.944569 -0.139892 -0.112984 -0.0512826 0.0780866) (0.146415 -0.871065 0.468534 -0.188156 0.0316418 0.0417411) (0.0386281 -0.639921 -0.301468 -0.056976 -0.0063662 0.0183479) (0.0770768 -0.503186 0.0339626 -0.0562161 0.0205331 -0.0208608) (0.0878183 -0.494787 0.261711 -0.0678914 0.0273729 -0.0199269));
    }
    XY-Zmax
    {
        type            calculated;
        value           nonuniform List<symmTensor> 9((0.010363 -0.47499 0.934159 -0.098051 0.0807016 0.087688) (-0.0966412 0.0225547 1.03539 0.00599697 0.081761 0.0906443) (-0.0976437 0.560286 1.05973 0.0844807 0.106129 0.013163) (0.103055 -0.469017 0.902616 -0.106347 0.087067 0.00329194) (-0.0113529 -0.0236137 1.21468 -0.027611 0.0601009 0.0389639) (-0.103343 0.631475 1.20967 0.0707741 0.0921061 0.0325686) (0.0722196 -0.292466 0.512876 -0.0246825 0.0371227 -0.0475371) (0.0379892 -0.111696 0.944978 -0.0080467 -0.0364525 -0.0299425) (-0.066039 0.670265 1.4482 -0.0134313 0.00957416 0.0794703));
    }
    XZ-Ymax
    {
        type            calculated;
        value           nonuniform List<symmTensor> 9((-0.172666 1.10038 -0.542195 0.214464 -0.0651392 -0.0417973) (-0.171579 1.10598 -0.00474853 0.221255 0.0151014 -0.0496765) (-0.131082 1.09352 0.53078 0.15573 0.0615574 -0.0246473) (-0.0407573 1.38779 -0.662998 0.104266 -0.0412094 -0.063509) (-0.12361 1.32613 0.00770644 0.170061 0.018915 -0.0464509) (-0.127862 1.24215 0.609445 0.132883 0.0602962 -0.00502158) (0.10057 1.0729 -0.56544 -0.101122 0.033742 0.000551285) (0.00921469 1.41891 -0.0649076 -0.0331441 0.0249256 0.0239295) (-0.0583244 1.47482 0.711454 0.00815724 0.030177 0.0501671));
    }
    YZ-Xmax
    {
        type            calculated;
        value           nonuniform List<symmTensor> 9((0.00130889 -1.23009e-05 -1.14035e-05 0.0013093 -3.45453e-07 0.00130945) (0.000264675 -9.58216e-07 6.6452e-08 0.000264731 2.41393e-08 0.000264696) (0.0326617 -0.00659941 0.00553229 0.0325214 0.000344464 0.0322858) (0.0430392 -0.00211873 -0.0156335 0.0449297 0.00101788 0.0435444) (0.0283452 -0.0117949 -0.00351284 0.0308681 -0.00248657 0.0282522) (0.153847 -0.0193825 0.0657191 0.157131 -0.00507523 0.152537) (0.249563 0.069481 -0.0839591 0.240042 0.00369081 0.245916) (0.233016 0.10183 -0.0101103 0.223428 -0.00213327 0.230435) (0.47137 0.14253 0.157494 0.467986 0.000170573 0.480258));
    }
}


// ************************************************************************* //
