/*--------------------------------*- C++ -*----------------------------------*\
| =========                 |                                                 |
| \\      /  F ield         | OpenFOAM: The Open Source CFD Toolbox           |
|  \\    /   O peration     | Version:  2312                                  |
|   \\  /    A nd           | Website:  www.openfoam.com                      |
|    \\/     M anipulation  |                                                 |
\*---------------------------------------------------------------------------*/
FoamFile
{
    version     2.0;
    format      ascii;
    arch        "LSB;label=32;scalar=64";
    class       volScalarField;
    location    "200";
    object      turbulenceProperties:L;
}
// * * * * * * * * * * * * * * * * * * * * * * * * * * * * * * * * * * * * * //

dimensions      [0 1 0 0 0 0 0];

internalField   nonuniform List<scalar> 
27
(
0.00109168
0.00129452
0.00110408
0.00127092
0.00196398
0.001287
0.00105225
0.00127834
0.00111946
0.00154761
0.00473588
0.0204653
0.00618608
0.00498854
0.00220442
0.00173387
0.00161279
0.00112757
0.00733302
0.0218853
0.0011887
0.00139305
0.00333911
0.00208007
0.00172513
0.00227984
0.00213027
)
;

boundaryField
{
    aggregate
    {
        type            calculated;
        value           uniform 0;
    }
    XY-Zmin
    {
        type            calculated;
        value           uniform 0;
    }
    YZ-Xmin
    {
        type            calculated;
        value           nonuniform List<scalar> 9(0.00138922 0.00159728 0.0014704 0.00154767 0.00198484 0.00168284 0.00136 0.00159139 0.00137681);
    }
    XZ-Ymin
    {
        type            calculated;
        value           uniform 0;
    }
    XY-Zmax
    {
        type            calculated;
        value           uniform 0;
    }
    XZ-Ymax
    {
        type            calculated;
        value           uniform 0;
    }
    YZ-Xmax
    {
        type            calculated;
        value           nonuniform List<scalar> 9(0.00716571 0.0217237 0.00119046 0.0014064 0.00328595 0.00209477 0.00175408 0.00234906 0.00214268);
    }
}


// ************************************************************************* //
