/*--------------------------------*- C++ -*----------------------------------*\
| =========                 |                                                 |
| \\      /  F ield         | OpenFOAM: The Open Source CFD Toolbox           |
|  \\    /   O peration     | Version:  2312                                  |
|   \\  /    A nd           | Website:  www.openfoam.com                      |
|    \\/     M anipulation  |                                                 |
\*---------------------------------------------------------------------------*/
FoamFile
{
    version     2.0;
    format      ascii;
    arch        "LSB;label=32;scalar=64";
    class       volScalarField;
    location    "200";
    object      turbulenceProperties:k;
}
// * * * * * * * * * * * * * * * * * * * * * * * * * * * * * * * * * * * * * //

dimensions      [0 2 -2 0 0 0 0];

internalField   nonuniform List<scalar> 
27
(
0.0465954
0.033006
0.0434309
0.0351462
0.0134408
0.0313238
0.0471412
0.0305031
0.0397207
0.0194184
0.00320613
0.000523044
0.00230173
0.0026008
0.0104649
0.0166596
0.0179491
0.0379302
0.00187523
0.00039121
0.0488784
0.0670229
0.0423513
0.235044
0.380206
0.364613
0.7181
)
;

boundaryField
{
    aggregate
    {
        type            calculated;
        value           uniform 0;
    }
    XY-Zmin
    {
        type            calculated;
        value           uniform 0;
    }
    YZ-Xmin
    {
        type            calculated;
        value           nonuniform List<scalar> 9(0.0284653 0.0215328 0.0254089 0.0229352 0.0139447 0.0193988 0.0297018 0.0216925 0.0289808);
    }
    XZ-Ymin
    {
        type            calculated;
        value           uniform 0;
    }
    XY-Zmax
    {
        type            calculated;
        value           uniform 0;
    }
    XZ-Ymax
    {
        type            calculated;
        value           uniform 0;
    }
    YZ-Xmax
    {
        type            calculated;
        value           nonuniform List<scalar> 9(0.00196382 0.000397051 0.0487344 0.0657567 0.0437327 0.231758 0.36776 0.34344 0.709807);
    }
}


// ************************************************************************* //
