/*--------------------------------*- C++ -*----------------------------------*\
| =========                 |                                                 |
| \\      /  F ield         | OpenFOAM: The Open Source CFD Toolbox           |
|  \\    /   O peration     | Version:  2312                                  |
|   \\  /    A nd           | Website:  www.openfoam.com                      |
|    \\/     M anipulation  |                                                 |
\*---------------------------------------------------------------------------*/
FoamFile
{
    version     2.0;
    format      ascii;
    arch        "LSB;label=32;scalar=64";
    class       volScalarField;
    location    "200";
    object      turbulenceProperties:nuEff;
}
// * * * * * * * * * * * * * * * * * * * * * * * * * * * * * * * * * * * * * //

dimensions      [0 2 -1 0 0 0 0];

internalField   nonuniform List<scalar> 
27
(
2.78516e-05
2.76276e-05
2.51256e-05
2.90961e-05
2.39014e-05
2.39464e-05
2.42991e-05
2.15083e-05
2.14205e-05
1.54583e-05
1.02476e-05
1.00025e-05
1.0102e-05
1.04043e-05
1.15599e-05
1.17486e-05
1.39185e-05
1.92756e-05
1.00577e-05
1.00046e-05
4.02073e-05
8.02882e-05
0.000188528
0.000281551
0.00029715
0.000384504
0.000502917
)
;

boundaryField
{
    aggregate
    {
        type            calculated;
        value           nonuniform List<scalar> 
24
(
0.00152989
0.000169041
0.00115859
0.00113896
0.000166175
0.00150397
0.00118274
0.000172563
0.00156175
0.00151509
0.000167405
0.0011474
0.00121447
0.00013419
0.000919724
0.000989297
0.000144339
0.00130635
0.00106554
0.000155464
0.00140699
0.00142285
0.000157214
0.00107755
)
;
    }
    XY-Zmin
    {
        type            calculated;
        value           nonuniform List<scalar> 9(0.00206354 0.00208761 0.00197504 0.00163361 0.00187849 0.00217073 0.00157888 0.00161094 0.00193883);
    }
    YZ-Xmin
    {
        type            calculated;
        value           uniform 2e-05;
    }
    XZ-Ymin
    {
        type            calculated;
        value           nonuniform List<scalar> 9(0.0020445 0.00202816 0.00186602 0.0016186 0.00175873 0.00180625 0.00157888 0.00141459 0.00140018);
    }
    XY-Zmax
    {
        type            calculated;
        value           nonuniform List<scalar> 9(0.00186602 0.00195381 0.00196075 0.00180625 0.00207005 0.00208191 0.00140018 0.00184636 0.00225465);
    }
    XZ-Ymax
    {
        type            calculated;
        value           nonuniform List<scalar> 9(0.00197504 0.00198721 0.00196075 0.00217073 0.00213239 0.00208191 0.00193883 0.00220467 0.00225465);
    }
    YZ-Xmax
    {
        type            calculated;
        value           nonuniform List<scalar> 9(1.00577e-05 1.00046e-05 4.02073e-05 8.02882e-05 0.000188528 0.000281551 0.00029715 0.000384504 0.000502917);
    }
}


// ************************************************************************* //
