/*--------------------------------*- C++ -*----------------------------------*\
| =========                 |                                                 |
| \\      /  F ield         | OpenFOAM: The Open Source CFD Toolbox           |
|  \\    /   O peration     | Version:  2312                                  |
|   \\  /    A nd           | Website:  www.openfoam.com                      |
|    \\/     M anipulation  |                                                 |
\*---------------------------------------------------------------------------*/
FoamFile
{
    version     2.0;
    format      ascii;
    arch        "LSB;label=32;scalar=64";
    class       volScalarField;
    location    "200";
    object      turbulenceProperties:nut;
}
// * * * * * * * * * * * * * * * * * * * * * * * * * * * * * * * * * * * * * //

dimensions      [0 2 -1 0 0 0 0];

internalField   nonuniform List<scalar> 
27
(
1.78516e-05
1.76276e-05
1.51256e-05
1.90961e-05
1.39014e-05
1.39464e-05
1.42991e-05
1.15083e-05
1.14205e-05
5.45833e-06
2.47633e-07
2.47009e-09
1.01956e-07
4.04286e-07
1.55986e-06
1.74865e-06
3.91848e-06
9.27563e-06
5.77174e-08
4.62854e-09
3.02073e-05
7.02882e-05
0.000178528
0.000271551
0.00028715
0.000374504
0.000492917
)
;

boundaryField
{
    aggregate
    {
        type            nutUSpaldingWallFunction;
        value           nonuniform List<scalar> 
24
(
0.00151989
0.000159041
0.00114859
0.00112896
0.000156175
0.00149397
0.00117274
0.000162563
0.00155175
0.00150509
0.000157405
0.0011374
0.00120447
0.00012419
0.000909724
0.000979297
0.000134339
0.00129635
0.00105554
0.000145464
0.00139699
0.00141285
0.000147214
0.00106755
)
;
    }
    XY-Zmin
    {
        type            nutUSpaldingWallFunction;
        value           nonuniform List<scalar> 9(0.00205354 0.00207761 0.00196504 0.00162361 0.00186849 0.00216073 0.00156888 0.00160094 0.00192883);
    }
    YZ-Xmin
    {
        type            freestream;
        freestreamValue uniform 1e-05;
        value           uniform 1e-05;
    }
    XZ-Ymin
    {
        type            nutUSpaldingWallFunction;
        value           nonuniform List<scalar> 9(0.0020345 0.00201816 0.00185602 0.0016086 0.00174873 0.00179625 0.00156888 0.00140459 0.00139018);
    }
    XY-Zmax
    {
        type            nutUSpaldingWallFunction;
        value           nonuniform List<scalar> 9(0.00185602 0.00194381 0.00195075 0.00179625 0.00206005 0.00207191 0.00139018 0.00183636 0.00224465);
    }
    XZ-Ymax
    {
        type            nutUSpaldingWallFunction;
        value           nonuniform List<scalar> 9(0.00196504 0.00197721 0.00195075 0.00216073 0.00212239 0.00207191 0.00192883 0.00219467 0.00224465);
    }
    YZ-Xmax
    {
        type            freestream;
        freestreamValue uniform 1e-05;
        value           nonuniform List<scalar> 9(5.77174e-08 4.62854e-09 3.02073e-05 7.02882e-05 0.000178528 0.000271551 0.00028715 0.000374504 0.000492917);
    }
}


// ************************************************************************* //
