/*--------------------------------*- C++ -*----------------------------------*\
| =========                 |                                                 |
| \\      /  F ield         | OpenFOAM: The Open Source CFD Toolbox           |
|  \\    /   O peration     | Version:  2312                                  |
|   \\  /    A nd           | Website:  www.openfoam.com                      |
|    \\/     M anipulation  |                                                 |
\*---------------------------------------------------------------------------*/
FoamFile
{
    version     2.0;
    format      ascii;
    arch        "LSB;label=32;scalar=64";
    class       volVectorField;
    location    "200";
    object      U;
}
// * * * * * * * * * * * * * * * * * * * * * * * * * * * * * * * * * * * * * //

dimensions      [0 1 -1 0 0 0 0];

internalField   nonuniform List<vector> 
27
(
(30.9491 3.9227 0.214993)
(30.3193 3.50042 1.45594)
(25.6166 2.80996 1.34962)
(31.7884 3.58293 -0.135093)
(30.632 3.33738 1.04911)
(27.1887 1.79893 1.19405)
(27.4433 3.21791 -0.00518426)
(27.6285 3.39116 0.174529)
(27.2863 2.38849 0.132875)
(23.2525 3.57897 0.876547)
(25.5802 2.60067 1.10379)
(24.6498 2.80052 0.46753)
(28.1121 1.84439 -0.335565)
(28.5315 1.26662 0.346848)
(29.184 1.43312 1.04021)
(30.9024 1.7957 0.117428)
(30.1932 2.4884 0.464531)
(29.3774 1.8714 0.365137)
(21.0713 0.960012 -0.17063)
(18.4434 0.534066 -0.790432)
(18.1925 1.19804 -0.551485)
(21.5485 -1.65796 -0.126399)
(22.9324 -1.6762 -0.490659)
(25.4704 -0.636109 0.00292456)
(26.9723 -1.62795 0.26722)
(31.5117 -0.801876 0.973353)
(32.3854 -0.00600752 0.874169)
)
;

boundaryField
{
    aggregate
    {
        type            noSlip;
    }
    XY-Zmin
    {
        type            noSlip;
    }
    YZ-Xmin
    {
        type            freestreamVelocity;
        freestreamValue uniform (25.75 3.62 0);
        value           nonuniform List<vector> 9((25.7753 3.62147 0.00104558) (25.7722 3.61942 0.00707447) (25.7494 3.61606 0.00655732) (25.7793 3.61982 -0.000656166) (25.7737 3.61863 0.00509478) (25.757 3.61118 0.00578249) (25.7582 3.61805 -2.51982e-05) (25.7591 3.61889 0.000848698) (25.7575 3.61403 0.000644552));
    }
    XZ-Ymin
    {
        type            noSlip;
    }
    XY-Zmax
    {
        type            noSlip;
    }
    XZ-Ymax
    {
        type            noSlip;
    }
    YZ-Xmax
    {
        type            freestreamVelocity;
        freestreamValue uniform (25.75 3.62 0);
        value           nonuniform List<vector> 9((21.0734 0.961177 -0.170556) (18.4605 0.541293 -0.788581) (18.2169 1.20584 -0.549708) (21.5739 -1.62602 -0.125635) (22.9517 -1.6399 -0.487296) (25.4717 -0.615482 0.00291039) (26.9649 -1.59615 0.2656) (31.4912 -0.786133 0.969887) (32.3743 7.35672e-05 0.872703));
    }
}


// ************************************************************************* //
